VARIABLES="X" "Y" "Z" "NX" "NY" "NZ" "A"
 ZONE N=        1056 , E=         987  , F=FEPOINT,ET=QUADRILATERAL
   0.5000000E+00   0.0000000E+00   0.0000000E+00   0.0000000E+00   0.0000000E+00   0.0000000E+00   0.0000000E+00
   0.4988834E+00   0.3339632E-01   0.0000000E+00   0.0000000E+00   0.0000000E+00   0.0000000E+00   0.0000000E+00
   0.4955387E+00   0.6664348E-01   0.0000000E+00   0.0000000E+00   0.0000000E+00   0.0000000E+00   0.0000000E+00
   0.4899808E+00   0.9959299E-01   0.0000000E+00   0.0000000E+00   0.0000000E+00   0.0000000E+00   0.0000000E+00
   0.4822346E+00   0.1320977E+00   0.0000000E+00   0.0000000E+00   0.0000000E+00   0.0000000E+00   0.0000000E+00
   0.4723345E+00   0.1640124E+00   0.0000000E+00   0.0000000E+00   0.0000000E+00   0.0000000E+00   0.0000000E+00
   0.4603249E+00   0.1951946E+00   0.0000000E+00   0.0000000E+00   0.0000000E+00   0.0000000E+00   0.0000000E+00
   0.4462594E+00   0.2255051E+00   0.0000000E+00   0.0000000E+00   0.0000000E+00   0.0000000E+00   0.0000000E+00
   0.4302008E+00   0.2548083E+00   0.0000000E+00   0.0000000E+00   0.0000000E+00   0.0000000E+00   0.0000000E+00
   0.4122208E+00   0.2829736E+00   0.0000000E+00   0.0000000E+00   0.0000000E+00   0.0000000E+00   0.0000000E+00
   0.3923997E+00   0.3098750E+00   0.0000000E+00   0.0000000E+00   0.0000000E+00   0.0000000E+00   0.0000000E+00
   0.3708261E+00   0.3353924E+00   0.0000000E+00   0.0000000E+00   0.0000000E+00   0.0000000E+00   0.0000000E+00
   0.3475962E+00   0.3594118E+00   0.0000000E+00   0.0000000E+00   0.0000000E+00   0.0000000E+00   0.0000000E+00
   0.3228139E+00   0.3818261E+00   0.0000000E+00   0.0000000E+00   0.0000000E+00   0.0000000E+00   0.0000000E+00
   0.2965899E+00   0.4025350E+00   0.0000000E+00   0.0000000E+00   0.0000000E+00   0.0000000E+00   0.0000000E+00
   0.2690412E+00   0.4214461E+00   0.0000000E+00   0.0000000E+00   0.0000000E+00   0.0000000E+00   0.0000000E+00
   0.2402909E+00   0.4384750E+00   0.0000000E+00   0.0000000E+00   0.0000000E+00   0.0000000E+00   0.0000000E+00
   0.2104674E+00   0.4535455E+00   0.0000000E+00   0.0000000E+00   0.0000000E+00   0.0000000E+00   0.0000000E+00
   0.1797039E+00   0.4665903E+00   0.0000000E+00   0.0000000E+00   0.0000000E+00   0.0000000E+00   0.0000000E+00
   0.1481378E+00   0.4775513E+00   0.0000000E+00   0.0000000E+00   0.0000000E+00   0.0000000E+00   0.0000000E+00
   0.1159101E+00   0.4863793E+00   0.0000000E+00   0.0000000E+00   0.0000000E+00   0.0000000E+00   0.0000000E+00
   0.8316468E-01   0.4930351E+00   0.0000000E+00   0.0000000E+00   0.0000000E+00   0.0000000E+00   0.0000000E+00
   0.5004784E-01   0.4974889E+00   0.0000000E+00   0.0000000E+00   0.0000000E+00   0.0000000E+00   0.0000000E+00
   0.1670749E-01   0.4997208E+00   0.0000000E+00   0.0000000E+00   0.0000000E+00   0.0000000E+00   0.0000000E+00
  -0.1670749E-01   0.4997208E+00   0.0000000E+00   0.0000000E+00   0.0000000E+00   0.0000000E+00   0.0000000E+00
  -0.5004784E-01   0.4974889E+00   0.0000000E+00   0.0000000E+00   0.0000000E+00   0.0000000E+00   0.0000000E+00
  -0.8316468E-01   0.4930351E+00   0.0000000E+00   0.0000000E+00   0.0000000E+00   0.0000000E+00   0.0000000E+00
  -0.1159101E+00   0.4863793E+00   0.0000000E+00   0.0000000E+00   0.0000000E+00   0.0000000E+00   0.0000000E+00
  -0.1481378E+00   0.4775513E+00   0.0000000E+00   0.0000000E+00   0.0000000E+00   0.0000000E+00   0.0000000E+00
  -0.1797039E+00   0.4665903E+00   0.0000000E+00   0.0000000E+00   0.0000000E+00   0.0000000E+00   0.0000000E+00
  -0.2104674E+00   0.4535455E+00   0.0000000E+00   0.0000000E+00   0.0000000E+00   0.0000000E+00   0.0000000E+00
  -0.2402909E+00   0.4384750E+00   0.0000000E+00   0.0000000E+00   0.0000000E+00   0.0000000E+00   0.0000000E+00
  -0.2690412E+00   0.4214461E+00   0.0000000E+00   0.0000000E+00   0.0000000E+00   0.0000000E+00   0.0000000E+00
  -0.2965899E+00   0.4025350E+00   0.0000000E+00   0.0000000E+00   0.0000000E+00   0.0000000E+00   0.0000000E+00
  -0.3228139E+00   0.3818261E+00   0.0000000E+00   0.0000000E+00   0.0000000E+00   0.0000000E+00   0.0000000E+00
  -0.3475962E+00   0.3594118E+00   0.0000000E+00   0.0000000E+00   0.0000000E+00   0.0000000E+00   0.0000000E+00
  -0.3708261E+00   0.3353924E+00   0.0000000E+00   0.0000000E+00   0.0000000E+00   0.0000000E+00   0.0000000E+00
  -0.3923997E+00   0.3098750E+00   0.0000000E+00   0.0000000E+00   0.0000000E+00   0.0000000E+00   0.0000000E+00
  -0.4122208E+00   0.2829736E+00   0.0000000E+00   0.0000000E+00   0.0000000E+00   0.0000000E+00   0.0000000E+00
  -0.4302008E+00   0.2548083E+00   0.0000000E+00   0.0000000E+00   0.0000000E+00   0.0000000E+00   0.0000000E+00
  -0.4462594E+00   0.2255051E+00   0.0000000E+00   0.0000000E+00   0.0000000E+00   0.0000000E+00   0.0000000E+00
  -0.4603249E+00   0.1951946E+00   0.0000000E+00   0.0000000E+00   0.0000000E+00   0.0000000E+00   0.0000000E+00
  -0.4723345E+00   0.1640124E+00   0.0000000E+00   0.0000000E+00   0.0000000E+00   0.0000000E+00   0.0000000E+00
  -0.4822346E+00   0.1320977E+00   0.0000000E+00   0.0000000E+00   0.0000000E+00   0.0000000E+00   0.0000000E+00
  -0.4899808E+00   0.9959299E-01   0.0000000E+00   0.0000000E+00   0.0000000E+00   0.0000000E+00   0.0000000E+00
  -0.4955387E+00   0.6664348E-01   0.0000000E+00   0.0000000E+00   0.0000000E+00   0.0000000E+00   0.0000000E+00
  -0.4988834E+00   0.3339632E-01   0.0000000E+00   0.0000000E+00   0.0000000E+00   0.0000000E+00   0.0000000E+00
  -0.5000000E+00   0.6125740E-16   0.0000000E+00   0.0000000E+00   0.0000000E+00   0.0000000E+00   0.0000000E+00
   0.5000000E+00   0.0000000E+00  -0.8181818E-01   0.0000000E+00   0.0000000E+00   0.0000000E+00   0.0000000E+00
   0.4988834E+00   0.3339632E-01  -0.8181818E-01   0.0000000E+00   0.0000000E+00   0.0000000E+00   0.0000000E+00
   0.4955387E+00   0.6664348E-01  -0.8181818E-01   0.0000000E+00   0.0000000E+00   0.0000000E+00   0.0000000E+00
   0.4899808E+00   0.9959299E-01  -0.8181818E-01   0.0000000E+00   0.0000000E+00   0.0000000E+00   0.0000000E+00
   0.4822346E+00   0.1320977E+00  -0.8181818E-01   0.0000000E+00   0.0000000E+00   0.0000000E+00   0.0000000E+00
   0.4723345E+00   0.1640124E+00  -0.8181818E-01   0.0000000E+00   0.0000000E+00   0.0000000E+00   0.0000000E+00
   0.4603249E+00   0.1951946E+00  -0.8181818E-01   0.0000000E+00   0.0000000E+00   0.0000000E+00   0.0000000E+00
   0.4462594E+00   0.2255051E+00  -0.8181818E-01   0.0000000E+00   0.0000000E+00   0.0000000E+00   0.0000000E+00
   0.4302008E+00   0.2548083E+00  -0.8181818E-01   0.0000000E+00   0.0000000E+00   0.0000000E+00   0.0000000E+00
   0.4122208E+00   0.2829736E+00  -0.8181818E-01   0.0000000E+00   0.0000000E+00   0.0000000E+00   0.0000000E+00
   0.3923997E+00   0.3098750E+00  -0.8181818E-01   0.0000000E+00   0.0000000E+00   0.0000000E+00   0.0000000E+00
   0.3708261E+00   0.3353924E+00  -0.8181818E-01   0.0000000E+00   0.0000000E+00   0.0000000E+00   0.0000000E+00
   0.3475962E+00   0.3594118E+00  -0.8181818E-01   0.0000000E+00   0.0000000E+00   0.0000000E+00   0.0000000E+00
   0.3228139E+00   0.3818261E+00  -0.8181818E-01   0.0000000E+00   0.0000000E+00   0.0000000E+00   0.0000000E+00
   0.2965899E+00   0.4025350E+00  -0.8181818E-01   0.0000000E+00   0.0000000E+00   0.0000000E+00   0.0000000E+00
   0.2690412E+00   0.4214461E+00  -0.8181818E-01   0.0000000E+00   0.0000000E+00   0.0000000E+00   0.0000000E+00
   0.2402909E+00   0.4384750E+00  -0.8181818E-01   0.0000000E+00   0.0000000E+00   0.0000000E+00   0.0000000E+00
   0.2104674E+00   0.4535455E+00  -0.8181818E-01   0.0000000E+00   0.0000000E+00   0.0000000E+00   0.0000000E+00
   0.1797039E+00   0.4665903E+00  -0.8181818E-01   0.0000000E+00   0.0000000E+00   0.0000000E+00   0.0000000E+00
   0.1481378E+00   0.4775513E+00  -0.8181818E-01   0.0000000E+00   0.0000000E+00   0.0000000E+00   0.0000000E+00
   0.1159101E+00   0.4863793E+00  -0.8181818E-01   0.0000000E+00   0.0000000E+00   0.0000000E+00   0.0000000E+00
   0.8316468E-01   0.4930351E+00  -0.8181818E-01   0.0000000E+00   0.0000000E+00   0.0000000E+00   0.0000000E+00
   0.5004784E-01   0.4974889E+00  -0.8181818E-01   0.0000000E+00   0.0000000E+00   0.0000000E+00   0.0000000E+00
   0.1670749E-01   0.4997208E+00  -0.8181818E-01   0.0000000E+00   0.0000000E+00   0.0000000E+00   0.0000000E+00
  -0.1670749E-01   0.4997208E+00  -0.8181818E-01   0.0000000E+00   0.0000000E+00   0.0000000E+00   0.0000000E+00
  -0.5004784E-01   0.4974889E+00  -0.8181818E-01   0.0000000E+00   0.0000000E+00   0.0000000E+00   0.0000000E+00
  -0.8316468E-01   0.4930351E+00  -0.8181818E-01   0.0000000E+00   0.0000000E+00   0.0000000E+00   0.0000000E+00
  -0.1159101E+00   0.4863793E+00  -0.8181818E-01   0.0000000E+00   0.0000000E+00   0.0000000E+00   0.0000000E+00
  -0.1481378E+00   0.4775513E+00  -0.8181818E-01   0.0000000E+00   0.0000000E+00   0.0000000E+00   0.0000000E+00
  -0.1797039E+00   0.4665903E+00  -0.8181818E-01   0.0000000E+00   0.0000000E+00   0.0000000E+00   0.0000000E+00
  -0.2104674E+00   0.4535455E+00  -0.8181818E-01   0.0000000E+00   0.0000000E+00   0.0000000E+00   0.0000000E+00
  -0.2402909E+00   0.4384750E+00  -0.8181818E-01   0.0000000E+00   0.0000000E+00   0.0000000E+00   0.0000000E+00
  -0.2690412E+00   0.4214461E+00  -0.8181818E-01   0.0000000E+00   0.0000000E+00   0.0000000E+00   0.0000000E+00
  -0.2965899E+00   0.4025350E+00  -0.8181818E-01   0.0000000E+00   0.0000000E+00   0.0000000E+00   0.0000000E+00
  -0.3228139E+00   0.3818261E+00  -0.8181818E-01   0.0000000E+00   0.0000000E+00   0.0000000E+00   0.0000000E+00
  -0.3475962E+00   0.3594118E+00  -0.8181818E-01   0.0000000E+00   0.0000000E+00   0.0000000E+00   0.0000000E+00
  -0.3708261E+00   0.3353924E+00  -0.8181818E-01   0.0000000E+00   0.0000000E+00   0.0000000E+00   0.0000000E+00
  -0.3923997E+00   0.3098750E+00  -0.8181818E-01   0.0000000E+00   0.0000000E+00   0.0000000E+00   0.0000000E+00
  -0.4122208E+00   0.2829736E+00  -0.8181818E-01   0.0000000E+00   0.0000000E+00   0.0000000E+00   0.0000000E+00
  -0.4302008E+00   0.2548083E+00  -0.8181818E-01   0.0000000E+00   0.0000000E+00   0.0000000E+00   0.0000000E+00
  -0.4462594E+00   0.2255051E+00  -0.8181818E-01   0.0000000E+00   0.0000000E+00   0.0000000E+00   0.0000000E+00
  -0.4603249E+00   0.1951946E+00  -0.8181818E-01   0.0000000E+00   0.0000000E+00   0.0000000E+00   0.0000000E+00
  -0.4723345E+00   0.1640124E+00  -0.8181818E-01   0.0000000E+00   0.0000000E+00   0.0000000E+00   0.0000000E+00
  -0.4822346E+00   0.1320977E+00  -0.8181818E-01   0.0000000E+00   0.0000000E+00   0.0000000E+00   0.0000000E+00
  -0.4899808E+00   0.9959299E-01  -0.8181818E-01   0.0000000E+00   0.0000000E+00   0.0000000E+00   0.0000000E+00
  -0.4955387E+00   0.6664348E-01  -0.8181818E-01   0.0000000E+00   0.0000000E+00   0.0000000E+00   0.0000000E+00
  -0.4988834E+00   0.3339632E-01  -0.8181818E-01   0.0000000E+00   0.0000000E+00   0.0000000E+00   0.0000000E+00
  -0.5000000E+00   0.6125740E-16  -0.8181818E-01   0.0000000E+00   0.0000000E+00   0.0000000E+00   0.0000000E+00
   0.5000000E+00   0.0000000E+00  -0.1636364E+00   0.0000000E+00   0.0000000E+00   0.0000000E+00   0.0000000E+00
   0.4988834E+00   0.3339632E-01  -0.1636364E+00   0.0000000E+00   0.0000000E+00   0.0000000E+00   0.0000000E+00
   0.4955387E+00   0.6664348E-01  -0.1636364E+00   0.0000000E+00   0.0000000E+00   0.0000000E+00   0.0000000E+00
   0.4899808E+00   0.9959299E-01  -0.1636364E+00   0.0000000E+00   0.0000000E+00   0.0000000E+00   0.0000000E+00
   0.4822346E+00   0.1320977E+00  -0.1636364E+00   0.0000000E+00   0.0000000E+00   0.0000000E+00   0.0000000E+00
   0.4723345E+00   0.1640124E+00  -0.1636364E+00   0.0000000E+00   0.0000000E+00   0.0000000E+00   0.0000000E+00
   0.4603249E+00   0.1951946E+00  -0.1636364E+00   0.0000000E+00   0.0000000E+00   0.0000000E+00   0.0000000E+00
   0.4462594E+00   0.2255051E+00  -0.1636364E+00   0.0000000E+00   0.0000000E+00   0.0000000E+00   0.0000000E+00
   0.4302008E+00   0.2548083E+00  -0.1636364E+00   0.0000000E+00   0.0000000E+00   0.0000000E+00   0.0000000E+00
   0.4122208E+00   0.2829736E+00  -0.1636364E+00   0.0000000E+00   0.0000000E+00   0.0000000E+00   0.0000000E+00
   0.3923997E+00   0.3098750E+00  -0.1636364E+00   0.0000000E+00   0.0000000E+00   0.0000000E+00   0.0000000E+00
   0.3708261E+00   0.3353924E+00  -0.1636364E+00   0.0000000E+00   0.0000000E+00   0.0000000E+00   0.0000000E+00
   0.3475962E+00   0.3594118E+00  -0.1636364E+00   0.0000000E+00   0.0000000E+00   0.0000000E+00   0.0000000E+00
   0.3228139E+00   0.3818261E+00  -0.1636364E+00   0.0000000E+00   0.0000000E+00   0.0000000E+00   0.0000000E+00
   0.2965899E+00   0.4025350E+00  -0.1636364E+00   0.0000000E+00   0.0000000E+00   0.0000000E+00   0.0000000E+00
   0.2690412E+00   0.4214461E+00  -0.1636364E+00   0.0000000E+00   0.0000000E+00   0.0000000E+00   0.0000000E+00
   0.2402909E+00   0.4384750E+00  -0.1636364E+00   0.0000000E+00   0.0000000E+00   0.0000000E+00   0.0000000E+00
   0.2104674E+00   0.4535455E+00  -0.1636364E+00   0.0000000E+00   0.0000000E+00   0.0000000E+00   0.0000000E+00
   0.1797039E+00   0.4665903E+00  -0.1636364E+00   0.0000000E+00   0.0000000E+00   0.0000000E+00   0.0000000E+00
   0.1481378E+00   0.4775513E+00  -0.1636364E+00   0.0000000E+00   0.0000000E+00   0.0000000E+00   0.0000000E+00
   0.1159101E+00   0.4863793E+00  -0.1636364E+00   0.0000000E+00   0.0000000E+00   0.0000000E+00   0.0000000E+00
   0.8316468E-01   0.4930351E+00  -0.1636364E+00   0.0000000E+00   0.0000000E+00   0.0000000E+00   0.0000000E+00
   0.5004784E-01   0.4974889E+00  -0.1636364E+00   0.0000000E+00   0.0000000E+00   0.0000000E+00   0.0000000E+00
   0.1670749E-01   0.4997208E+00  -0.1636364E+00   0.0000000E+00   0.0000000E+00   0.0000000E+00   0.0000000E+00
  -0.1670749E-01   0.4997208E+00  -0.1636364E+00   0.0000000E+00   0.0000000E+00   0.0000000E+00   0.0000000E+00
  -0.5004784E-01   0.4974889E+00  -0.1636364E+00   0.0000000E+00   0.0000000E+00   0.0000000E+00   0.0000000E+00
  -0.8316468E-01   0.4930351E+00  -0.1636364E+00   0.0000000E+00   0.0000000E+00   0.0000000E+00   0.0000000E+00
  -0.1159101E+00   0.4863793E+00  -0.1636364E+00   0.0000000E+00   0.0000000E+00   0.0000000E+00   0.0000000E+00
  -0.1481378E+00   0.4775513E+00  -0.1636364E+00   0.0000000E+00   0.0000000E+00   0.0000000E+00   0.0000000E+00
  -0.1797039E+00   0.4665903E+00  -0.1636364E+00   0.0000000E+00   0.0000000E+00   0.0000000E+00   0.0000000E+00
  -0.2104674E+00   0.4535455E+00  -0.1636364E+00   0.0000000E+00   0.0000000E+00   0.0000000E+00   0.0000000E+00
  -0.2402909E+00   0.4384750E+00  -0.1636364E+00   0.0000000E+00   0.0000000E+00   0.0000000E+00   0.0000000E+00
  -0.2690412E+00   0.4214461E+00  -0.1636364E+00   0.0000000E+00   0.0000000E+00   0.0000000E+00   0.0000000E+00
  -0.2965899E+00   0.4025350E+00  -0.1636364E+00   0.0000000E+00   0.0000000E+00   0.0000000E+00   0.0000000E+00
  -0.3228139E+00   0.3818261E+00  -0.1636364E+00   0.0000000E+00   0.0000000E+00   0.0000000E+00   0.0000000E+00
  -0.3475962E+00   0.3594118E+00  -0.1636364E+00   0.0000000E+00   0.0000000E+00   0.0000000E+00   0.0000000E+00
  -0.3708261E+00   0.3353924E+00  -0.1636364E+00   0.0000000E+00   0.0000000E+00   0.0000000E+00   0.0000000E+00
  -0.3923997E+00   0.3098750E+00  -0.1636364E+00   0.0000000E+00   0.0000000E+00   0.0000000E+00   0.0000000E+00
  -0.4122208E+00   0.2829736E+00  -0.1636364E+00   0.0000000E+00   0.0000000E+00   0.0000000E+00   0.0000000E+00
  -0.4302008E+00   0.2548083E+00  -0.1636364E+00   0.0000000E+00   0.0000000E+00   0.0000000E+00   0.0000000E+00
  -0.4462594E+00   0.2255051E+00  -0.1636364E+00   0.0000000E+00   0.0000000E+00   0.0000000E+00   0.0000000E+00
  -0.4603249E+00   0.1951946E+00  -0.1636364E+00   0.0000000E+00   0.0000000E+00   0.0000000E+00   0.0000000E+00
  -0.4723345E+00   0.1640124E+00  -0.1636364E+00   0.0000000E+00   0.0000000E+00   0.0000000E+00   0.0000000E+00
  -0.4822346E+00   0.1320977E+00  -0.1636364E+00   0.0000000E+00   0.0000000E+00   0.0000000E+00   0.0000000E+00
  -0.4899808E+00   0.9959299E-01  -0.1636364E+00   0.0000000E+00   0.0000000E+00   0.0000000E+00   0.0000000E+00
  -0.4955387E+00   0.6664348E-01  -0.1636364E+00   0.0000000E+00   0.0000000E+00   0.0000000E+00   0.0000000E+00
  -0.4988834E+00   0.3339632E-01  -0.1636364E+00   0.0000000E+00   0.0000000E+00   0.0000000E+00   0.0000000E+00
  -0.5000000E+00   0.6125740E-16  -0.1636364E+00   0.0000000E+00   0.0000000E+00   0.0000000E+00   0.0000000E+00
   0.5000000E+00   0.0000000E+00  -0.2454545E+00   0.0000000E+00   0.0000000E+00   0.0000000E+00   0.0000000E+00
   0.4988834E+00   0.3339632E-01  -0.2454545E+00   0.0000000E+00   0.0000000E+00   0.0000000E+00   0.0000000E+00
   0.4955387E+00   0.6664348E-01  -0.2454545E+00   0.0000000E+00   0.0000000E+00   0.0000000E+00   0.0000000E+00
   0.4899808E+00   0.9959299E-01  -0.2454545E+00   0.0000000E+00   0.0000000E+00   0.0000000E+00   0.0000000E+00
   0.4822346E+00   0.1320977E+00  -0.2454545E+00   0.0000000E+00   0.0000000E+00   0.0000000E+00   0.0000000E+00
   0.4723345E+00   0.1640124E+00  -0.2454545E+00   0.0000000E+00   0.0000000E+00   0.0000000E+00   0.0000000E+00
   0.4603249E+00   0.1951946E+00  -0.2454545E+00   0.0000000E+00   0.0000000E+00   0.0000000E+00   0.0000000E+00
   0.4462594E+00   0.2255051E+00  -0.2454545E+00   0.0000000E+00   0.0000000E+00   0.0000000E+00   0.0000000E+00
   0.4302008E+00   0.2548083E+00  -0.2454545E+00   0.0000000E+00   0.0000000E+00   0.0000000E+00   0.0000000E+00
   0.4122208E+00   0.2829736E+00  -0.2454545E+00   0.0000000E+00   0.0000000E+00   0.0000000E+00   0.0000000E+00
   0.3923997E+00   0.3098750E+00  -0.2454545E+00   0.0000000E+00   0.0000000E+00   0.0000000E+00   0.0000000E+00
   0.3708261E+00   0.3353924E+00  -0.2454545E+00   0.0000000E+00   0.0000000E+00   0.0000000E+00   0.0000000E+00
   0.3475962E+00   0.3594118E+00  -0.2454545E+00   0.0000000E+00   0.0000000E+00   0.0000000E+00   0.0000000E+00
   0.3228139E+00   0.3818261E+00  -0.2454545E+00   0.0000000E+00   0.0000000E+00   0.0000000E+00   0.0000000E+00
   0.2965899E+00   0.4025350E+00  -0.2454545E+00   0.0000000E+00   0.0000000E+00   0.0000000E+00   0.0000000E+00
   0.2690412E+00   0.4214461E+00  -0.2454545E+00   0.0000000E+00   0.0000000E+00   0.0000000E+00   0.0000000E+00
   0.2402909E+00   0.4384750E+00  -0.2454545E+00   0.0000000E+00   0.0000000E+00   0.0000000E+00   0.0000000E+00
   0.2104674E+00   0.4535455E+00  -0.2454545E+00   0.0000000E+00   0.0000000E+00   0.0000000E+00   0.0000000E+00
   0.1797039E+00   0.4665903E+00  -0.2454545E+00   0.0000000E+00   0.0000000E+00   0.0000000E+00   0.0000000E+00
   0.1481378E+00   0.4775513E+00  -0.2454545E+00   0.0000000E+00   0.0000000E+00   0.0000000E+00   0.0000000E+00
   0.1159101E+00   0.4863793E+00  -0.2454545E+00   0.0000000E+00   0.0000000E+00   0.0000000E+00   0.0000000E+00
   0.8316468E-01   0.4930351E+00  -0.2454545E+00   0.0000000E+00   0.0000000E+00   0.0000000E+00   0.0000000E+00
   0.5004784E-01   0.4974889E+00  -0.2454545E+00   0.0000000E+00   0.0000000E+00   0.0000000E+00   0.0000000E+00
   0.1670749E-01   0.4997208E+00  -0.2454545E+00   0.0000000E+00   0.0000000E+00   0.0000000E+00   0.0000000E+00
  -0.1670749E-01   0.4997208E+00  -0.2454545E+00   0.0000000E+00   0.0000000E+00   0.0000000E+00   0.0000000E+00
  -0.5004784E-01   0.4974889E+00  -0.2454545E+00   0.0000000E+00   0.0000000E+00   0.0000000E+00   0.0000000E+00
  -0.8316468E-01   0.4930351E+00  -0.2454545E+00   0.0000000E+00   0.0000000E+00   0.0000000E+00   0.0000000E+00
  -0.1159101E+00   0.4863793E+00  -0.2454545E+00   0.0000000E+00   0.0000000E+00   0.0000000E+00   0.0000000E+00
  -0.1481378E+00   0.4775513E+00  -0.2454545E+00   0.0000000E+00   0.0000000E+00   0.0000000E+00   0.0000000E+00
  -0.1797039E+00   0.4665903E+00  -0.2454545E+00   0.0000000E+00   0.0000000E+00   0.0000000E+00   0.0000000E+00
  -0.2104674E+00   0.4535455E+00  -0.2454545E+00   0.0000000E+00   0.0000000E+00   0.0000000E+00   0.0000000E+00
  -0.2402909E+00   0.4384750E+00  -0.2454545E+00   0.0000000E+00   0.0000000E+00   0.0000000E+00   0.0000000E+00
  -0.2690412E+00   0.4214461E+00  -0.2454545E+00   0.0000000E+00   0.0000000E+00   0.0000000E+00   0.0000000E+00
  -0.2965899E+00   0.4025350E+00  -0.2454545E+00   0.0000000E+00   0.0000000E+00   0.0000000E+00   0.0000000E+00
  -0.3228139E+00   0.3818261E+00  -0.2454545E+00   0.0000000E+00   0.0000000E+00   0.0000000E+00   0.0000000E+00
  -0.3475962E+00   0.3594118E+00  -0.2454545E+00   0.0000000E+00   0.0000000E+00   0.0000000E+00   0.0000000E+00
  -0.3708261E+00   0.3353924E+00  -0.2454545E+00   0.0000000E+00   0.0000000E+00   0.0000000E+00   0.0000000E+00
  -0.3923997E+00   0.3098750E+00  -0.2454545E+00   0.0000000E+00   0.0000000E+00   0.0000000E+00   0.0000000E+00
  -0.4122208E+00   0.2829736E+00  -0.2454545E+00   0.0000000E+00   0.0000000E+00   0.0000000E+00   0.0000000E+00
  -0.4302008E+00   0.2548083E+00  -0.2454545E+00   0.0000000E+00   0.0000000E+00   0.0000000E+00   0.0000000E+00
  -0.4462594E+00   0.2255051E+00  -0.2454545E+00   0.0000000E+00   0.0000000E+00   0.0000000E+00   0.0000000E+00
  -0.4603249E+00   0.1951946E+00  -0.2454545E+00   0.0000000E+00   0.0000000E+00   0.0000000E+00   0.0000000E+00
  -0.4723345E+00   0.1640124E+00  -0.2454545E+00   0.0000000E+00   0.0000000E+00   0.0000000E+00   0.0000000E+00
  -0.4822346E+00   0.1320977E+00  -0.2454545E+00   0.0000000E+00   0.0000000E+00   0.0000000E+00   0.0000000E+00
  -0.4899808E+00   0.9959299E-01  -0.2454545E+00   0.0000000E+00   0.0000000E+00   0.0000000E+00   0.0000000E+00
  -0.4955387E+00   0.6664348E-01  -0.2454545E+00   0.0000000E+00   0.0000000E+00   0.0000000E+00   0.0000000E+00
  -0.4988834E+00   0.3339632E-01  -0.2454545E+00   0.0000000E+00   0.0000000E+00   0.0000000E+00   0.0000000E+00
  -0.5000000E+00   0.6125740E-16  -0.2454545E+00   0.0000000E+00   0.0000000E+00   0.0000000E+00   0.0000000E+00
   0.5000000E+00   0.0000000E+00  -0.3272727E+00   0.0000000E+00   0.0000000E+00   0.0000000E+00   0.0000000E+00
   0.4988834E+00   0.3339632E-01  -0.3272727E+00   0.0000000E+00   0.0000000E+00   0.0000000E+00   0.0000000E+00
   0.4955387E+00   0.6664348E-01  -0.3272727E+00   0.0000000E+00   0.0000000E+00   0.0000000E+00   0.0000000E+00
   0.4899808E+00   0.9959299E-01  -0.3272727E+00   0.0000000E+00   0.0000000E+00   0.0000000E+00   0.0000000E+00
   0.4822346E+00   0.1320977E+00  -0.3272727E+00   0.0000000E+00   0.0000000E+00   0.0000000E+00   0.0000000E+00
   0.4723345E+00   0.1640124E+00  -0.3272727E+00   0.0000000E+00   0.0000000E+00   0.0000000E+00   0.0000000E+00
   0.4603249E+00   0.1951946E+00  -0.3272727E+00   0.0000000E+00   0.0000000E+00   0.0000000E+00   0.0000000E+00
   0.4462594E+00   0.2255051E+00  -0.3272727E+00   0.0000000E+00   0.0000000E+00   0.0000000E+00   0.0000000E+00
   0.4302008E+00   0.2548083E+00  -0.3272727E+00   0.0000000E+00   0.0000000E+00   0.0000000E+00   0.0000000E+00
   0.4122208E+00   0.2829736E+00  -0.3272727E+00   0.0000000E+00   0.0000000E+00   0.0000000E+00   0.0000000E+00
   0.3923997E+00   0.3098750E+00  -0.3272727E+00   0.0000000E+00   0.0000000E+00   0.0000000E+00   0.0000000E+00
   0.3708261E+00   0.3353924E+00  -0.3272727E+00   0.0000000E+00   0.0000000E+00   0.0000000E+00   0.0000000E+00
   0.3475962E+00   0.3594118E+00  -0.3272727E+00   0.0000000E+00   0.0000000E+00   0.0000000E+00   0.0000000E+00
   0.3228139E+00   0.3818261E+00  -0.3272727E+00   0.0000000E+00   0.0000000E+00   0.0000000E+00   0.0000000E+00
   0.2965899E+00   0.4025350E+00  -0.3272727E+00   0.0000000E+00   0.0000000E+00   0.0000000E+00   0.0000000E+00
   0.2690412E+00   0.4214461E+00  -0.3272727E+00   0.0000000E+00   0.0000000E+00   0.0000000E+00   0.0000000E+00
   0.2402909E+00   0.4384750E+00  -0.3272727E+00   0.0000000E+00   0.0000000E+00   0.0000000E+00   0.0000000E+00
   0.2104674E+00   0.4535455E+00  -0.3272727E+00   0.0000000E+00   0.0000000E+00   0.0000000E+00   0.0000000E+00
   0.1797039E+00   0.4665903E+00  -0.3272727E+00   0.0000000E+00   0.0000000E+00   0.0000000E+00   0.0000000E+00
   0.1481378E+00   0.4775513E+00  -0.3272727E+00   0.0000000E+00   0.0000000E+00   0.0000000E+00   0.0000000E+00
   0.1159101E+00   0.4863793E+00  -0.3272727E+00   0.0000000E+00   0.0000000E+00   0.0000000E+00   0.0000000E+00
   0.8316468E-01   0.4930351E+00  -0.3272727E+00   0.0000000E+00   0.0000000E+00   0.0000000E+00   0.0000000E+00
   0.5004784E-01   0.4974889E+00  -0.3272727E+00   0.0000000E+00   0.0000000E+00   0.0000000E+00   0.0000000E+00
   0.1670749E-01   0.4997208E+00  -0.3272727E+00   0.0000000E+00   0.0000000E+00   0.0000000E+00   0.0000000E+00
  -0.1670749E-01   0.4997208E+00  -0.3272727E+00   0.0000000E+00   0.0000000E+00   0.0000000E+00   0.0000000E+00
  -0.5004784E-01   0.4974889E+00  -0.3272727E+00   0.0000000E+00   0.0000000E+00   0.0000000E+00   0.0000000E+00
  -0.8316468E-01   0.4930351E+00  -0.3272727E+00   0.0000000E+00   0.0000000E+00   0.0000000E+00   0.0000000E+00
  -0.1159101E+00   0.4863793E+00  -0.3272727E+00   0.0000000E+00   0.0000000E+00   0.0000000E+00   0.0000000E+00
  -0.1481378E+00   0.4775513E+00  -0.3272727E+00   0.0000000E+00   0.0000000E+00   0.0000000E+00   0.0000000E+00
  -0.1797039E+00   0.4665903E+00  -0.3272727E+00   0.0000000E+00   0.0000000E+00   0.0000000E+00   0.0000000E+00
  -0.2104674E+00   0.4535455E+00  -0.3272727E+00   0.0000000E+00   0.0000000E+00   0.0000000E+00   0.0000000E+00
  -0.2402909E+00   0.4384750E+00  -0.3272727E+00   0.0000000E+00   0.0000000E+00   0.0000000E+00   0.0000000E+00
  -0.2690412E+00   0.4214461E+00  -0.3272727E+00   0.0000000E+00   0.0000000E+00   0.0000000E+00   0.0000000E+00
  -0.2965899E+00   0.4025350E+00  -0.3272727E+00   0.0000000E+00   0.0000000E+00   0.0000000E+00   0.0000000E+00
  -0.3228139E+00   0.3818261E+00  -0.3272727E+00   0.0000000E+00   0.0000000E+00   0.0000000E+00   0.0000000E+00
  -0.3475962E+00   0.3594118E+00  -0.3272727E+00   0.0000000E+00   0.0000000E+00   0.0000000E+00   0.0000000E+00
  -0.3708261E+00   0.3353924E+00  -0.3272727E+00   0.0000000E+00   0.0000000E+00   0.0000000E+00   0.0000000E+00
  -0.3923997E+00   0.3098750E+00  -0.3272727E+00   0.0000000E+00   0.0000000E+00   0.0000000E+00   0.0000000E+00
  -0.4122208E+00   0.2829736E+00  -0.3272727E+00   0.0000000E+00   0.0000000E+00   0.0000000E+00   0.0000000E+00
  -0.4302008E+00   0.2548083E+00  -0.3272727E+00   0.0000000E+00   0.0000000E+00   0.0000000E+00   0.0000000E+00
  -0.4462594E+00   0.2255051E+00  -0.3272727E+00   0.0000000E+00   0.0000000E+00   0.0000000E+00   0.0000000E+00
  -0.4603249E+00   0.1951946E+00  -0.3272727E+00   0.0000000E+00   0.0000000E+00   0.0000000E+00   0.0000000E+00
  -0.4723345E+00   0.1640124E+00  -0.3272727E+00   0.0000000E+00   0.0000000E+00   0.0000000E+00   0.0000000E+00
  -0.4822346E+00   0.1320977E+00  -0.3272727E+00   0.0000000E+00   0.0000000E+00   0.0000000E+00   0.0000000E+00
  -0.4899808E+00   0.9959299E-01  -0.3272727E+00   0.0000000E+00   0.0000000E+00   0.0000000E+00   0.0000000E+00
  -0.4955387E+00   0.6664348E-01  -0.3272727E+00   0.0000000E+00   0.0000000E+00   0.0000000E+00   0.0000000E+00
  -0.4988834E+00   0.3339632E-01  -0.3272727E+00   0.0000000E+00   0.0000000E+00   0.0000000E+00   0.0000000E+00
  -0.5000000E+00   0.6125740E-16  -0.3272727E+00   0.0000000E+00   0.0000000E+00   0.0000000E+00   0.0000000E+00
   0.5000000E+00   0.0000000E+00  -0.4090909E+00   0.0000000E+00   0.0000000E+00   0.0000000E+00   0.0000000E+00
   0.4988834E+00   0.3339632E-01  -0.4090909E+00   0.0000000E+00   0.0000000E+00   0.0000000E+00   0.0000000E+00
   0.4955387E+00   0.6664348E-01  -0.4090909E+00   0.0000000E+00   0.0000000E+00   0.0000000E+00   0.0000000E+00
   0.4899808E+00   0.9959299E-01  -0.4090909E+00   0.0000000E+00   0.0000000E+00   0.0000000E+00   0.0000000E+00
   0.4822346E+00   0.1320977E+00  -0.4090909E+00   0.0000000E+00   0.0000000E+00   0.0000000E+00   0.0000000E+00
   0.4723345E+00   0.1640124E+00  -0.4090909E+00   0.0000000E+00   0.0000000E+00   0.0000000E+00   0.0000000E+00
   0.4603249E+00   0.1951946E+00  -0.4090909E+00   0.0000000E+00   0.0000000E+00   0.0000000E+00   0.0000000E+00
   0.4462594E+00   0.2255051E+00  -0.4090909E+00   0.0000000E+00   0.0000000E+00   0.0000000E+00   0.0000000E+00
   0.4302008E+00   0.2548083E+00  -0.4090909E+00   0.0000000E+00   0.0000000E+00   0.0000000E+00   0.0000000E+00
   0.4122208E+00   0.2829736E+00  -0.4090909E+00   0.0000000E+00   0.0000000E+00   0.0000000E+00   0.0000000E+00
   0.3923997E+00   0.3098750E+00  -0.4090909E+00   0.0000000E+00   0.0000000E+00   0.0000000E+00   0.0000000E+00
   0.3708261E+00   0.3353924E+00  -0.4090909E+00   0.0000000E+00   0.0000000E+00   0.0000000E+00   0.0000000E+00
   0.3475962E+00   0.3594118E+00  -0.4090909E+00   0.0000000E+00   0.0000000E+00   0.0000000E+00   0.0000000E+00
   0.3228139E+00   0.3818261E+00  -0.4090909E+00   0.0000000E+00   0.0000000E+00   0.0000000E+00   0.0000000E+00
   0.2965899E+00   0.4025350E+00  -0.4090909E+00   0.0000000E+00   0.0000000E+00   0.0000000E+00   0.0000000E+00
   0.2690412E+00   0.4214461E+00  -0.4090909E+00   0.0000000E+00   0.0000000E+00   0.0000000E+00   0.0000000E+00
   0.2402909E+00   0.4384750E+00  -0.4090909E+00   0.0000000E+00   0.0000000E+00   0.0000000E+00   0.0000000E+00
   0.2104674E+00   0.4535455E+00  -0.4090909E+00   0.0000000E+00   0.0000000E+00   0.0000000E+00   0.0000000E+00
   0.1797039E+00   0.4665903E+00  -0.4090909E+00   0.0000000E+00   0.0000000E+00   0.0000000E+00   0.0000000E+00
   0.1481378E+00   0.4775513E+00  -0.4090909E+00   0.0000000E+00   0.0000000E+00   0.0000000E+00   0.0000000E+00
   0.1159101E+00   0.4863793E+00  -0.4090909E+00   0.0000000E+00   0.0000000E+00   0.0000000E+00   0.0000000E+00
   0.8316468E-01   0.4930351E+00  -0.4090909E+00   0.0000000E+00   0.0000000E+00   0.0000000E+00   0.0000000E+00
   0.5004784E-01   0.4974889E+00  -0.4090909E+00   0.0000000E+00   0.0000000E+00   0.0000000E+00   0.0000000E+00
   0.1670749E-01   0.4997208E+00  -0.4090909E+00   0.0000000E+00   0.0000000E+00   0.0000000E+00   0.0000000E+00