VARIABLES="X" "Y" "Z" "NX" "NY" "NZ" "A"
 ZONE N=         264 , E=         231  , F=FEPOINT,ET=QUADRILATERAL
   0.5000000E+00   0.0000000E+00   0.0000000E+00   0.0000000E+00   0.0000000E+00   0.0000000E+00   0.0000000E+00
   0.4797465E+00   0.1408663E+00   0.0000000E+00   0.0000000E+00   0.0000000E+00   0.0000000E+00   0.0000000E+00
   0.4206268E+00   0.2703204E+00   0.0000000E+00   0.0000000E+00   0.0000000E+00   0.0000000E+00   0.0000000E+00
   0.3274304E+00   0.3778748E+00   0.0000000E+00   0.0000000E+00   0.0000000E+00   0.0000000E+00   0.0000000E+00
   0.2077075E+00   0.4548160E+00   0.0000000E+00   0.0000000E+00   0.0000000E+00   0.0000000E+00   0.0000000E+00
   0.7115742E-01   0.4949107E+00   0.0000000E+00   0.0000000E+00   0.0000000E+00   0.0000000E+00   0.0000000E+00
  -0.7115742E-01   0.4949107E+00   0.0000000E+00   0.0000000E+00   0.0000000E+00   0.0000000E+00   0.0000000E+00
  -0.2077075E+00   0.4548160E+00   0.0000000E+00   0.0000000E+00   0.0000000E+00   0.0000000E+00   0.0000000E+00
  -0.3274304E+00   0.3778748E+00   0.0000000E+00   0.0000000E+00   0.0000000E+00   0.0000000E+00   0.0000000E+00
  -0.4206268E+00   0.2703204E+00   0.0000000E+00   0.0000000E+00   0.0000000E+00   0.0000000E+00   0.0000000E+00
  -0.4797465E+00   0.1408663E+00   0.0000000E+00   0.0000000E+00   0.0000000E+00   0.0000000E+00   0.0000000E+00
  -0.5000000E+00   0.2840000E-15   0.0000000E+00   0.0000000E+00   0.0000000E+00   0.0000000E+00   0.0000000E+00
   0.5000000E+00   0.0000000E+00  -0.8181818E-01   0.0000000E+00   0.0000000E+00   0.0000000E+00   0.0000000E+00
   0.4797465E+00   0.1408663E+00  -0.8181818E-01   0.0000000E+00   0.0000000E+00   0.0000000E+00   0.0000000E+00
   0.4206268E+00   0.2703204E+00  -0.8181818E-01   0.0000000E+00   0.0000000E+00   0.0000000E+00   0.0000000E+00
   0.3274304E+00   0.3778748E+00  -0.8181818E-01   0.0000000E+00   0.0000000E+00   0.0000000E+00   0.0000000E+00
   0.2077075E+00   0.4548160E+00  -0.8181818E-01   0.0000000E+00   0.0000000E+00   0.0000000E+00   0.0000000E+00
   0.7115742E-01   0.4949107E+00  -0.8181818E-01   0.0000000E+00   0.0000000E+00   0.0000000E+00   0.0000000E+00
  -0.7115742E-01   0.4949107E+00  -0.8181818E-01   0.0000000E+00   0.0000000E+00   0.0000000E+00   0.0000000E+00
  -0.2077075E+00   0.4548160E+00  -0.8181818E-01   0.0000000E+00   0.0000000E+00   0.0000000E+00   0.0000000E+00
  -0.3274304E+00   0.3778748E+00  -0.8181818E-01   0.0000000E+00   0.0000000E+00   0.0000000E+00   0.0000000E+00
  -0.4206268E+00   0.2703204E+00  -0.8181818E-01   0.0000000E+00   0.0000000E+00   0.0000000E+00   0.0000000E+00
  -0.4797465E+00   0.1408663E+00  -0.8181818E-01   0.0000000E+00   0.0000000E+00   0.0000000E+00   0.0000000E+00
  -0.5000000E+00   0.2840000E-15  -0.8181818E-01   0.0000000E+00   0.0000000E+00   0.0000000E+00   0.0000000E+00
   0.5000000E+00   0.0000000E+00  -0.1636364E+00   0.0000000E+00   0.0000000E+00   0.0000000E+00   0.0000000E+00
   0.4797465E+00   0.1408663E+00  -0.1636364E+00   0.0000000E+00   0.0000000E+00   0.0000000E+00   0.0000000E+00
   0.4206268E+00   0.2703204E+00  -0.1636364E+00   0.0000000E+00   0.0000000E+00   0.0000000E+00   0.0000000E+00
   0.3274304E+00   0.3778748E+00  -0.1636364E+00   0.0000000E+00   0.0000000E+00   0.0000000E+00   0.0000000E+00
   0.2077075E+00   0.4548160E+00  -0.1636364E+00   0.0000000E+00   0.0000000E+00   0.0000000E+00   0.0000000E+00
   0.7115742E-01   0.4949107E+00  -0.1636364E+00   0.0000000E+00   0.0000000E+00   0.0000000E+00   0.0000000E+00
  -0.7115742E-01   0.4949107E+00  -0.1636364E+00   0.0000000E+00   0.0000000E+00   0.0000000E+00   0.0000000E+00
  -0.2077075E+00   0.4548160E+00  -0.1636364E+00   0.0000000E+00   0.0000000E+00   0.0000000E+00   0.0000000E+00
  -0.3274304E+00   0.3778748E+00  -0.1636364E+00   0.0000000E+00   0.0000000E+00   0.0000000E+00   0.0000000E+00
  -0.4206268E+00   0.2703204E+00  -0.1636364E+00   0.0000000E+00   0.0000000E+00   0.0000000E+00   0.0000000E+00
  -0.4797465E+00   0.1408663E+00  -0.1636364E+00   0.0000000E+00   0.0000000E+00   0.0000000E+00   0.0000000E+00
  -0.5000000E+00   0.2840000E-15  -0.1636364E+00   0.0000000E+00   0.0000000E+00   0.0000000E+00   0.0000000E+00
   0.5000000E+00   0.0000000E+00  -0.2454545E+00   0.0000000E+00   0.0000000E+00   0.0000000E+00   0.0000000E+00
   0.4797465E+00   0.1408663E+00  -0.2454545E+00   0.0000000E+00   0.0000000E+00   0.0000000E+00   0.0000000E+00
   0.4206268E+00   0.2703204E+00  -0.2454545E+00   0.0000000E+00   0.0000000E+00   0.0000000E+00   0.0000000E+00
   0.3274304E+00   0.3778748E+00  -0.2454545E+00   0.0000000E+00   0.0000000E+00   0.0000000E+00   0.0000000E+00
   0.2077075E+00   0.4548160E+00  -0.2454545E+00   0.0000000E+00   0.0000000E+00   0.0000000E+00   0.0000000E+00
   0.7115742E-01   0.4949107E+00  -0.2454545E+00   0.0000000E+00   0.0000000E+00   0.0000000E+00   0.0000000E+00
  -0.7115742E-01   0.4949107E+00  -0.2454545E+00   0.0000000E+00   0.0000000E+00   0.0000000E+00   0.0000000E+00
  -0.2077075E+00   0.4548160E+00  -0.2454545E+00   0.0000000E+00   0.0000000E+00   0.0000000E+00   0.0000000E+00
  -0.3274304E+00   0.3778748E+00  -0.2454545E+00   0.0000000E+00   0.0000000E+00   0.0000000E+00   0.0000000E+00
  -0.4206268E+00   0.2703204E+00  -0.2454545E+00   0.0000000E+00   0.0000000E+00   0.0000000E+00   0.0000000E+00
  -0.4797465E+00   0.1408663E+00  -0.2454545E+00   0.0000000E+00   0.0000000E+00   0.0000000E+00   0.0000000E+00
  -0.5000000E+00   0.2840000E-15  -0.2454545E+00   0.0000000E+00   0.0000000E+00   0.0000000E+00   0.0000000E+00
   0.5000000E+00   0.0000000E+00  -0.3272727E+00   0.0000000E+00   0.0000000E+00   0.0000000E+00   0.0000000E+00
   0.4797465E+00   0.1408663E+00  -0.3272727E+00   0.0000000E+00   0.0000000E+00   0.0000000E+00   0.0000000E+00
   0.4206268E+00   0.2703204E+00  -0.3272727E+00   0.0000000E+00   0.0000000E+00   0.0000000E+00   0.0000000E+00
   0.3274304E+00   0.3778748E+00  -0.3272727E+00   0.0000000E+00   0.0000000E+00   0.0000000E+00   0.0000000E+00
   0.2077075E+00   0.4548160E+00  -0.3272727E+00   0.0000000E+00   0.0000000E+00   0.0000000E+00   0.0000000E+00
   0.7115742E-01   0.4949107E+00  -0.3272727E+00   0.0000000E+00   0.0000000E+00   0.0000000E+00   0.0000000E+00
  -0.7115742E-01   0.4949107E+00  -0.3272727E+00   0.0000000E+00   0.0000000E+00   0.0000000E+00   0.0000000E+00
  -0.2077075E+00   0.4548160E+00  -0.3272727E+00   0.0000000E+00   0.0000000E+00   0.0000000E+00   0.0000000E+00
  -0.3274304E+00   0.3778748E+00  -0.3272727E+00   0.0000000E+00   0.0000000E+00   0.0000000E+00   0.0000000E+00
  -0.4206268E+00   0.2703204E+00  -0.3272727E+00   0.0000000E+00   0.0000000E+00   0.0000000E+00   0.0000000E+00
  -0.4797465E+00   0.1408663E+00  -0.3272727E+00   0.0000000E+00   0.0000000E+00   0.0000000E+00   0.0000000E+00
  -0.5000000E+00   0.2840000E-15  -0.3272727E+00   0.0000000E+00   0.0000000E+00   0.0000000E+00   0.0000000E+00
   0.5000000E+00   0.0000000E+00  -0.4090909E+00   0.0000000E+00   0.0000000E+00   0.0000000E+00   0.0000000E+00
   0.4797465E+00   0.1408663E+00  -0.4090909E+00   0.0000000E+00   0.0000000E+00   0.0000000E+00   0.0000000E+00
   0.4206268E+00   0.2703204E+00  -0.4090909E+00   0.0000000E+00   0.0000000E+00   0.0000000E+00   0.0000000E+00
   0.3274304E+00   0.3778748E+00  -0.4090909E+00   0.0000000E+00   0.0000000E+00   0.0000000E+00   0.0000000E+00
   0.2077075E+00   0.4548160E+00  -0.4090909E+00   0.0000000E+00   0.0000000E+00   0.0000000E+00   0.0000000E+00
   0.7115742E-01   0.4949107E+00  -0.4090909E+00   0.0000000E+00   0.0000000E+00   0.0000000E+00   0.0000000E+00
  -0.7115742E-01   0.4949107E+00  -0.4090909E+00   0.0000000E+00   0.0000000E+00   0.0000000E+00   0.0000000E+00
  -0.2077075E+00   0.4548160E+00  -0.4090909E+00   0.0000000E+00   0.0000000E+00   0.0000000E+00   0.0000000E+00
  -0.3274304E+00   0.3778748E+00  -0.4090909E+00   0.0000000E+00   0.0000000E+00   0.0000000E+00   0.0000000E+00
  -0.4206268E+00   0.2703204E+00  -0.4090909E+00   0.0000000E+00   0.0000000E+00   0.0000000E+00   0.0000000E+00
  -0.4797465E+00   0.1408663E+00  -0.4090909E+00   0.0000000E+00   0.0000000E+00   0.0000000E+00   0.0000000E+00
  -0.5000000E+00   0.2840000E-15  -0.4090909E+00   0.0000000E+00   0.0000000E+00   0.0000000E+00   0.0000000E+00
   0.5000000E+00   0.0000000E+00  -0.4909091E+00   0.0000000E+00   0.0000000E+00   0.0000000E+00   0.0000000E+00
   0.4797465E+00   0.1408663E+00  -0.4909091E+00   0.0000000E+00   0.0000000E+00   0.0000000E+00   0.0000000E+00
   0.4206268E+00   0.2703204E+00  -0.4909091E+00   0.0000000E+00   0.0000000E+00   0.0000000E+00   0.0000000E+00
   0.3274304E+00   0.3778748E+00  -0.4909091E+00   0.0000000E+00   0.0000000E+00   0.0000000E+00   0.0000000E+00
   0.2077075E+00   0.4548160E+00  -0.4909091E+00   0.0000000E+00   0.0000000E+00   0.0000000E+00   0.0000000E+00
   0.7115742E-01   0.4949107E+00  -0.4909091E+00   0.0000000E+00   0.0000000E+00   0.0000000E+00   0.0000000E+00
  -0.7115742E-01   0.4949107E+00  -0.4909091E+00   0.0000000E+00   0.0000000E+00   0.0000000E+00   0.0000000E+00
  -0.2077075E+00   0.4548160E+00  -0.4909091E+00   0.0000000E+00   0.0000000E+00   0.0000000E+00   0.0000000E+00
  -0.3274304E+00   0.3778748E+00  -0.4909091E+00   0.0000000E+00   0.0000000E+00   0.0000000E+00   0.0000000E+00
  -0.4206268E+00   0.2703204E+00  -0.4909091E+00   0.0000000E+00   0.0000000E+00   0.0000000E+00   0.0000000E+00
  -0.4797465E+00   0.1408663E+00  -0.4909091E+00   0.0000000E+00   0.0000000E+00   0.0000000E+00   0.0000000E+00
  -0.5000000E+00   0.2840000E-15  -0.4909091E+00   0.0000000E+00   0.0000000E+00   0.0000000E+00   0.0000000E+00
   0.5000000E+00   0.0000000E+00  -0.5727273E+00   0.0000000E+00   0.0000000E+00   0.0000000E+00   0.0000000E+00
   0.4797465E+00   0.1408663E+00  -0.5727273E+00   0.0000000E+00   0.0000000E+00   0.0000000E+00   0.0000000E+00
   0.4206268E+00   0.2703204E+00  -0.5727273E+00   0.0000000E+00   0.0000000E+00   0.0000000E+00   0.0000000E+00
   0.3274304E+00   0.3778748E+00  -0.5727273E+00   0.0000000E+00   0.0000000E+00   0.0000000E+00   0.0000000E+00
   0.2077075E+00   0.4548160E+00  -0.5727273E+00   0.0000000E+00   0.0000000E+00   0.0000000E+00   0.0000000E+00
   0.7115742E-01   0.4949107E+00  -0.5727273E+00   0.0000000E+00   0.0000000E+00   0.0000000E+00   0.0000000E+00
  -0.7115742E-01   0.4949107E+00  -0.5727273E+00   0.0000000E+00   0.0000000E+00   0.0000000E+00   0.0000000E+00
  -0.2077075E+00   0.4548160E+00  -0.5727273E+00   0.0000000E+00   0.0000000E+00   0.0000000E+00   0.0000000E+00
  -0.3274304E+00   0.3778748E+00  -0.5727273E+00   0.0000000E+00   0.0000000E+00   0.0000000E+00   0.0000000E+00
  -0.4206268E+00   0.2703204E+00  -0.5727273E+00   0.0000000E+00   0.0000000E+00   0.0000000E+00   0.0000000E+00
  -0.4797465E+00   0.1408663E+00  -0.5727273E+00   0.0000000E+00   0.0000000E+00   0.0000000E+00   0.0000000E+00
  -0.5000000E+00   0.2840000E-15  -0.5727273E+00   0.0000000E+00   0.0000000E+00   0.0000000E+00   0.0000000E+00
   0.5000000E+00   0.0000000E+00  -0.6545454E+00   0.0000000E+00   0.0000000E+00   0.0000000E+00   0.0000000E+00
   0.4797465E+00   0.1408663E+00  -0.6545454E+00   0.0000000E+00   0.0000000E+00   0.0000000E+00   0.0000000E+00
   0.4206268E+00   0.2703204E+00  -0.6545454E+00   0.0000000E+00   0.0000000E+00   0.0000000E+00   0.0000000E+00
   0.3274304E+00   0.3778748E+00  -0.6545454E+00   0.0000000E+00   0.0000000E+00   0.0000000E+00   0.0000000E+00
   0.2077075E+00   0.4548160E+00  -0.6545454E+00   0.0000000E+00   0.0000000E+00   0.0000000E+00   0.0000000E+00
   0.7115742E-01   0.4949107E+00  -0.6545454E+00   0.0000000E+00   0.0000000E+00   0.0000000E+00   0.0000000E+00
  -0.7115742E-01   0.4949107E+00  -0.6545454E+00   0.0000000E+00   0.0000000E+00   0.0000000E+00   0.0000000E+00
  -0.2077075E+00   0.4548160E+00  -0.6545454E+00   0.0000000E+00   0.0000000E+00   0.0000000E+00   0.0000000E+00
  -0.3274304E+00   0.3778748E+00  -0.6545454E+00   0.0000000E+00   0.0000000E+00   0.0000000E+00   0.0000000E+00
  -0.4206268E+00   0.2703204E+00  -0.6545454E+00   0.0000000E+00   0.0000000E+00   0.0000000E+00   0.0000000E+00
  -0.4797465E+00   0.1408663E+00  -0.6545454E+00   0.0000000E+00   0.0000000E+00   0.0000000E+00   0.0000000E+00
  -0.5000000E+00   0.2840000E-15  -0.6545454E+00   0.0000000E+00   0.0000000E+00   0.0000000E+00   0.0000000E+00
   0.5000000E+00   0.0000000E+00  -0.7363636E+00   0.0000000E+00   0.0000000E+00   0.0000000E+00   0.0000000E+00
   0.4797465E+00   0.1408663E+00  -0.7363636E+00   0.0000000E+00   0.0000000E+00   0.0000000E+00   0.0000000E+00
   0.4206268E+00   0.2703204E+00  -0.7363636E+00   0.0000000E+00   0.0000000E+00   0.0000000E+00   0.0000000E+00
   0.3274304E+00   0.3778748E+00  -0.7363636E+00   0.0000000E+00   0.0000000E+00   0.0000000E+00   0.0000000E+00
   0.2077075E+00   0.4548160E+00  -0.7363636E+00   0.0000000E+00   0.0000000E+00   0.0000000E+00   0.0000000E+00
   0.7115742E-01   0.4949107E+00  -0.7363636E+00   0.0000000E+00   0.0000000E+00   0.0000000E+00   0.0000000E+00
  -0.7115742E-01   0.4949107E+00  -0.7363636E+00   0.0000000E+00   0.0000000E+00   0.0000000E+00   0.0000000E+00
  -0.2077075E+00   0.4548160E+00  -0.7363636E+00   0.0000000E+00   0.0000000E+00   0.0000000E+00   0.0000000E+00
  -0.3274304E+00   0.3778748E+00  -0.7363636E+00   0.0000000E+00   0.0000000E+00   0.0000000E+00   0.0000000E+00
  -0.4206268E+00   0.2703204E+00  -0.7363636E+00   0.0000000E+00   0.0000000E+00   0.0000000E+00   0.0000000E+00
  -0.4797465E+00   0.1408663E+00  -0.7363636E+00   0.0000000E+00   0.0000000E+00   0.0000000E+00   0.0000000E+00
  -0.5000000E+00   0.2840000E-15  -0.7363636E+00   0.0000000E+00   0.0000000E+00   0.0000000E+00   0.0000000E+00
   0.5000000E+00   0.0000000E+00  -0.8181818E+00   0.0000000E+00   0.0000000E+00   0.0000000E+00   0.0000000E+00
   0.4797465E+00   0.1408663E+00  -0.8181818E+00   0.0000000E+00   0.0000000E+00   0.0000000E+00   0.0000000E+00
   0.4206268E+00   0.2703204E+00  -0.8181818E+00   0.0000000E+00   0.0000000E+00   0.0000000E+00   0.0000000E+00
   0.3274304E+00   0.3778748E+00  -0.8181818E+00   0.0000000E+00   0.0000000E+00   0.0000000E+00   0.0000000E+00
   0.2077075E+00   0.4548160E+00  -0.8181818E+00   0.0000000E+00   0.0000000E+00   0.0000000E+00   0.0000000E+00
   0.7115742E-01   0.4949107E+00  -0.8181818E+00   0.0000000E+00   0.0000000E+00   0.0000000E+00   0.0000000E+00
  -0.7115742E-01   0.4949107E+00  -0.8181818E+00   0.0000000E+00   0.0000000E+00   0.0000000E+00   0.0000000E+00
  -0.2077075E+00   0.4548160E+00  -0.8181818E+00   0.0000000E+00   0.0000000E+00   0.0000000E+00   0.0000000E+00
  -0.3274304E+00   0.3778748E+00  -0.8181818E+00   0.0000000E+00   0.0000000E+00   0.0000000E+00   0.0000000E+00
  -0.4206268E+00   0.2703204E+00  -0.8181818E+00   0.0000000E+00   0.0000000E+00   0.0000000E+00   0.0000000E+00
  -0.4797465E+00   0.1408663E+00  -0.8181818E+00   0.0000000E+00   0.0000000E+00   0.0000000E+00   0.0000000E+00
  -0.5000000E+00   0.2840000E-15  -0.8181818E+00   0.0000000E+00   0.0000000E+00   0.0000000E+00   0.0000000E+00
   0.5000000E+00   0.0000000E+00  -0.9000000E+00   0.0000000E+00   0.0000000E+00   0.0000000E+00   0.0000000E+00
   0.4797465E+00   0.1408663E+00  -0.9000000E+00   0.0000000E+00   0.0000000E+00   0.0000000E+00   0.0000000E+00
   0.4206268E+00   0.2703204E+00  -0.9000000E+00   0.0000000E+00   0.0000000E+00   0.0000000E+00   0.0000000E+00
   0.3274304E+00   0.3778748E+00  -0.9000000E+00   0.0000000E+00   0.0000000E+00   0.0000000E+00   0.0000000E+00
   0.2077075E+00   0.4548160E+00  -0.9000000E+00   0.0000000E+00   0.0000000E+00   0.0000000E+00   0.0000000E+00
   0.7115742E-01   0.4949107E+00  -0.9000000E+00   0.0000000E+00   0.0000000E+00   0.0000000E+00   0.0000000E+00
  -0.7115742E-01   0.4949107E+00  -0.9000000E+00   0.0000000E+00   0.0000000E+00   0.0000000E+00   0.0000000E+00
  -0.2077075E+00   0.4548160E+00  -0.9000000E+00   0.0000000E+00   0.0000000E+00   0.0000000E+00   0.0000000E+00
  -0.3274304E+00   0.3778748E+00  -0.9000000E+00   0.0000000E+00   0.0000000E+00   0.0000000E+00   0.0000000E+00
  -0.4206268E+00   0.2703204E+00  -0.9000000E+00   0.0000000E+00   0.0000000E+00   0.0000000E+00   0.0000000E+00
  -0.4797465E+00   0.1408663E+00  -0.9000000E+00   0.0000000E+00   0.0000000E+00   0.0000000E+00   0.0000000E+00
  -0.5000000E+00   0.2840000E-15  -0.9000000E+00   0.0000000E+00   0.0000000E+00   0.0000000E+00   0.0000000E+00
   0.4545455E+00   0.0000000E+00  -0.9000000E+00   0.0000000E+00   0.0000000E+00   0.0000000E+00   0.0000000E+00
   0.4361332E+00   0.1280603E+00  -0.9000000E+00   0.0000000E+00   0.0000000E+00   0.0000000E+00   0.0000000E+00
   0.3823880E+00   0.2457458E+00  -0.9000000E+00   0.0000000E+00   0.0000000E+00   0.0000000E+00   0.0000000E+00
   0.2976640E+00   0.3435225E+00  -0.9000000E+00   0.0000000E+00   0.0000000E+00   0.0000000E+00   0.0000000E+00
   0.1888250E+00   0.4134691E+00  -0.9000000E+00   0.0000000E+00   0.0000000E+00   0.0000000E+00   0.0000000E+00
   0.6468856E-01   0.4499188E+00  -0.9000000E+00   0.0000000E+00   0.0000000E+00   0.0000000E+00   0.0000000E+00
  -0.6468856E-01   0.4499188E+00  -0.9000000E+00   0.0000000E+00   0.0000000E+00   0.0000000E+00   0.0000000E+00
  -0.1888250E+00   0.4134691E+00  -0.9000000E+00   0.0000000E+00   0.0000000E+00   0.0000000E+00   0.0000000E+00
  -0.2976640E+00   0.3435225E+00  -0.9000000E+00   0.0000000E+00   0.0000000E+00   0.0000000E+00   0.0000000E+00
  -0.3823880E+00   0.2457458E+00  -0.9000000E+00   0.0000000E+00   0.0000000E+00   0.0000000E+00   0.0000000E+00
  -0.4361332E+00   0.1280603E+00  -0.9000000E+00   0.0000000E+00   0.0000000E+00   0.0000000E+00   0.0000000E+00
  -0.4545455E+00   0.2580000E-15  -0.9000000E+00   0.0000000E+00   0.0000000E+00   0.0000000E+00   0.0000000E+00
   0.4090909E+00   0.0000000E+00  -0.9000000E+00   0.0000000E+00   0.0000000E+00   0.0000000E+00   0.0000000E+00
   0.3925199E+00   0.1152542E+00  -0.9000000E+00   0.0000000E+00   0.0000000E+00   0.0000000E+00   0.0000000E+00
   0.3441492E+00   0.2211712E+00  -0.9000000E+00   0.0000000E+00   0.0000000E+00   0.0000000E+00   0.0000000E+00
   0.2678976E+00   0.3091703E+00  -0.9000000E+00   0.0000000E+00   0.0000000E+00   0.0000000E+00   0.0000000E+00
   0.1699425E+00   0.3721222E+00  -0.9000000E+00   0.0000000E+00   0.0000000E+00   0.0000000E+00   0.0000000E+00
   0.5821971E-01   0.4049270E+00  -0.9000000E+00   0.0000000E+00   0.0000000E+00   0.0000000E+00   0.0000000E+00
  -0.5821971E-01   0.4049270E+00  -0.9000000E+00   0.0000000E+00   0.0000000E+00   0.0000000E+00   0.0000000E+00
  -0.1699425E+00   0.3721222E+00  -0.9000000E+00   0.0000000E+00   0.0000000E+00   0.0000000E+00   0.0000000E+00
  -0.2678976E+00   0.3091703E+00  -0.9000000E+00   0.0000000E+00   0.0000000E+00   0.0000000E+00   0.0000000E+00
  -0.3441492E+00   0.2211712E+00  -0.9000000E+00   0.0000000E+00   0.0000000E+00   0.0000000E+00   0.0000000E+00
  -0.3925199E+00   0.1152542E+00  -0.9000000E+00   0.0000000E+00   0.0000000E+00   0.0000000E+00   0.0000000E+00
  -0.4090909E+00   0.2320000E-15  -0.9000000E+00   0.0000000E+00   0.0000000E+00   0.0000000E+00   0.0000000E+00
   0.3636364E+00   0.0000000E+00  -0.9000000E+00   0.0000000E+00   0.0000000E+00   0.0000000E+00   0.0000000E+00
   0.3489065E+00   0.1024482E+00  -0.9000000E+00   0.0000000E+00   0.0000000E+00   0.0000000E+00   0.0000000E+00
   0.3059104E+00   0.1965967E+00  -0.9000000E+00   0.0000000E+00   0.0000000E+00   0.0000000E+00   0.0000000E+00
   0.2381312E+00   0.2748180E+00  -0.9000000E+00   0.0000000E+00   0.0000000E+00   0.0000000E+00   0.0000000E+00
   0.1510600E+00   0.3307753E+00  -0.9000000E+00   0.0000000E+00   0.0000000E+00   0.0000000E+00   0.0000000E+00
   0.5175085E-01   0.3599351E+00  -0.9000000E+00   0.0000000E+00   0.0000000E+00   0.0000000E+00   0.0000000E+00
  -0.5175085E-01   0.3599351E+00  -0.9000000E+00   0.0000000E+00   0.0000000E+00   0.0000000E+00   0.0000000E+00
  -0.1510600E+00   0.3307753E+00  -0.9000000E+00   0.0000000E+00   0.0000000E+00   0.0000000E+00   0.0000000E+00
  -0.2381312E+00   0.2748180E+00  -0.9000000E+00   0.0000000E+00   0.0000000E+00   0.0000000E+00   0.0000000E+00
  -0.3059104E+00   0.1965967E+00  -0.9000000E+00   0.0000000E+00   0.0000000E+00   0.0000000E+00   0.0000000E+00
  -0.3489065E+00   0.1024482E+00  -0.9000000E+00   0.0000000E+00   0.0000000E+00   0.0000000E+00   0.0000000E+00
  -0.3636364E+00   0.2060000E-15  -0.9000000E+00   0.0000000E+00   0.0000000E+00   0.0000000E+00   0.0000000E+00
   0.3181818E+00   0.0000000E+00  -0.9000000E+00   0.0000000E+00   0.0000000E+00   0.0000000E+00   0.0000000E+00
   0.3052932E+00   0.8964217E-01  -0.9000000E+00   0.0000000E+00   0.0000000E+00   0.0000000E+00   0.0000000E+00
   0.2676716E+00   0.1720221E+00  -0.9000000E+00   0.0000000E+00   0.0000000E+00   0.0000000E+00   0.0000000E+00
   0.2083648E+00   0.2404658E+00  -0.9000000E+00   0.0000000E+00   0.0000000E+00   0.0000000E+00   0.0000000E+00
   0.1321775E+00   0.2894284E+00  -0.9000000E+00   0.0000000E+00   0.0000000E+00   0.0000000E+00   0.0000000E+00
   0.4528200E-01   0.3149432E+00  -0.9000000E+00   0.0000000E+00   0.0000000E+00   0.0000000E+00   0.0000000E+00
  -0.4528200E-01   0.3149432E+00  -0.9000000E+00   0.0000000E+00   0.0000000E+00   0.0000000E+00   0.0000000E+00
  -0.1321775E+00   0.2894284E+00  -0.9000000E+00   0.0000000E+00   0.0000000E+00   0.0000000E+00   0.0000000E+00
  -0.2083648E+00   0.2404658E+00  -0.9000000E+00   0.0000000E+00   0.0000000E+00   0.0000000E+00   0.0000000E+00
  -0.2676716E+00   0.1720221E+00  -0.9000000E+00   0.0000000E+00   0.0000000E+00   0.0000000E+00   0.0000000E+00
  -0.3052932E+00   0.8964217E-01  -0.9000000E+00   0.0000000E+00   0.0000000E+00   0.0000000E+00   0.0000000E+00
  -0.3181818E+00   0.1810000E-15  -0.9000000E+00   0.0000000E+00   0.0000000E+00   0.0000000E+00   0.0000000E+00
   0.2727273E+00   0.0000000E+00  -0.9000000E+00   0.0000000E+00   0.0000000E+00   0.0000000E+00   0.0000000E+00
   0.2616799E+00   0.7683615E-01  -0.9000000E+00   0.0000000E+00   0.0000000E+00   0.0000000E+00   0.0000000E+00
   0.2294328E+00   0.1474475E+00  -0.9000000E+00   0.0000000E+00   0.0000000E+00   0.0000000E+00   0.0000000E+00
   0.1785984E+00   0.2061135E+00  -0.9000000E+00   0.0000000E+00   0.0000000E+00   0.0000000E+00   0.0000000E+00
   0.1132950E+00   0.2480815E+00  -0.9000000E+00   0.0000000E+00   0.0000000E+00   0.0000000E+00   0.0000000E+00
   0.3881314E-01   0.2699513E+00  -0.9000000E+00   0.0000000E+00   0.0000000E+00   0.0000000E+00   0.0000000E+00
  -0.3881314E-01   0.2699513E+00  -0.9000000E+00   0.0000000E+00   0.0000000E+00   0.0000000E+00   0.0000000E+00
  -0.1132950E+00   0.2480815E+00  -0.9000000E+00   0.0000000E+00   0.0000000E+00   0.0000000E+00   0.0000000E+00
  -0.1785984E+00   0.2061135E+00  -0.9000000E+00   0.0000000E+00   0.0000000E+00   0.0000000E+00   0.0000000E+00
  -0.2294328E+00   0.1474475E+00  -0.9000000E+00   0.0000000E+00   0.0000000E+00   0.0000000E+00   0.0000000E+00
  -0.2616799E+00   0.7683615E-01  -0.9000000E+00   0.0000000E+00   0.0000000E+00   0.0000000E+00   0.0000000E+00
  -0.2727273E+00   0.1550000E-15  -0.9000000E+00   0.0000000E+00   0.0000000E+00   0.0000000E+00   0.0000000E+00
   0.2272727E+00   0.0000000E+00  -0.9000000E+00   0.0000000E+00   0.0000000E+00   0.0000000E+00   0.0000000E+00
   0.2180666E+00   0.6403013E-01  -0.9000000E+00   0.0000000E+00   0.0000000E+00   0.0000000E+00   0.0000000E+00
   0.1911940E+00   0.1228729E+00  -0.9000000E+00   0.0000000E+00   0.0000000E+00   0.0000000E+00   0.0000000E+00
   0.1488320E+00   0.1717613E+00  -0.9000000E+00   0.0000000E+00   0.0000000E+00   0.0000000E+00   0.0000000E+00
   0.9441251E-01   0.2067345E+00  -0.9000000E+00   0.0000000E+00   0.0000000E+00   0.0000000E+00   0.0000000E+00
   0.3234428E-01   0.2249594E+00  -0.9000000E+00   0.0000000E+00   0.0000000E+00   0.0000000E+00   0.0000000E+00
  -0.3234428E-01   0.2249594E+00  -0.9000000E+00   0.0000000E+00   0.0000000E+00   0.0000000E+00   0.0000000E+00
  -0.9441251E-01   0.2067345E+00  -0.9000000E+00   0.0000000E+00   0.0000000E+00   0.0000000E+00   0.0000000E+00
  -0.1488320E+00   0.1717613E+00  -0.9000000E+00   0.0000000E+00   0.0000000E+00   0.0000000E+00   0.0000000E+00
  -0.1911940E+00   0.1228729E+00  -0.9000000E+00   0.0000000E+00   0.0000000E+00   0.0000000E+00   0.0000000E+00
  -0.2180666E+00   0.6403013E-01  -0.9000000E+00   0.0000000E+00   0.0000000E+00   0.0000000E+00   0.0000000E+00
  -0.2272727E+00   0.1290000E-15  -0.9000000E+00   0.0000000E+00   0.0000000E+00   0.0000000E+00   0.0000000E+00
   0.1818182E+00   0.0000000E+00  -0.9000000E+00   0.0000000E+00   0.0000000E+00   0.0000000E+00   0.0000000E+00
   0.1744533E+00   0.5122410E-01  -0.9000000E+00   0.0000000E+00   0.0000000E+00   0.0000000E+00   0.0000000E+00
   0.1529552E+00   0.9829833E-01  -0.9000000E+00   0.0000000E+00   0.0000000E+00   0.0000000E+00   0.0000000E+00
   0.1190656E+00   0.1374090E+00  -0.9000000E+00   0.0000000E+00   0.0000000E+00   0.0000000E+00   0.0000000E+00
   0.7553000E-01   0.1653876E+00  -0.9000000E+00   0.0000000E+00   0.0000000E+00   0.0000000E+00   0.0000000E+00
   0.2587542E-01   0.1799675E+00  -0.9000000E+00   0.0000000E+00   0.0000000E+00   0.0000000E+00   0.0000000E+00
  -0.2587542E-01   0.1799675E+00  -0.9000000E+00   0.0000000E+00   0.0000000E+00   0.0000000E+00   0.0000000E+00
  -0.7553000E-01   0.1653876E+00  -0.9000000E+00   0.0000000E+00   0.0000000E+00   0.0000000E+00   0.0000000E+00
  -0.1190656E+00   0.1374090E+00  -0.9000000E+00   0.0000000E+00   0.0000000E+00   0.0000000E+00   0.0000000E+00
  -0.1529552E+00   0.9829833E-01  -0.9000000E+00   0.0000000E+00   0.0000000E+00   0.0000000E+00   0.0000000E+00
  -0.1744533E+00   0.5122410E-01  -0.9000000E+00   0.0000000E+00   0.0000000E+00   0.0000000E+00   0.0000000E+00
  -0.1818182E+00   0.1030000E-15  -0.9000000E+00   0.0000000E+00   0.0000000E+00   0.0000000E+00   0.0000000E+00
   0.1363636E+00   0.0000000E+00  -0.9000000E+00   0.0000000E+00   0.0000000E+00   0.0000000E+00   0.0000000E+00
   0.1308399E+00   0.3841808E-01  -0.9000000E+00   0.0000000E+00   0.0000000E+00   0.0000000E+00   0.0000000E+00
   0.1147164E+00   0.7372375E-01  -0.9000000E+00   0.0000000E+00   0.0000000E+00   0.0000000E+00   0.0000000E+00
   0.8929919E-01   0.1030568E+00  -0.9000000E+00   0.0000000E+00   0.0000000E+00   0.0000000E+00   0.0000000E+00
   0.5664750E-01   0.1240407E+00  -0.9000000E+00   0.0000000E+00   0.0000000E+00   0.0000000E+00   0.0000000E+00
   0.1940657E-01   0.1349757E+00  -0.9000000E+00   0.0000000E+00   0.0000000E+00   0.0000000E+00   0.0000000E+00
  -0.1940657E-01   0.1349757E+00  -0.9000000E+00   0.0000000E+00   0.0000000E+00   0.0000000E+00   0.0000000E+00
  -0.5664750E-01   0.1240407E+00  -0.9000000E+00   0.0000000E+00   0.0000000E+00   0.0000000E+00   0.0000000E+00
  -0.8929919E-01   0.1030568E+00  -0.9000000E+00   0.0000000E+00   0.0000000E+00   0.0000000E+00   0.0000000E+00
  -0.1147164E+00   0.7372375E-01  -0.9000000E+00   0.0000000E+00   0.0000000E+00   0.0000000E+00   0.0000000E+00
  -0.1308399E+00   0.3841808E-01  -0.9000000E+00   0.0000000E+00   0.0000000E+00   0.0000000E+00   0.0000000E+00
  -0.1363636E+00   0.7750000E-16  -0.9000000E+00   0.0000000E+00   0.0000000E+00   0.0000000E+00   0.0000000E+00
   0.9090909E-01   0.0000000E+00  -0.9000000E+00   0.0000000E+00   0.0000000E+00   0.0000000E+00   0.0000000E+00
   0.8722664E-01   0.2561205E-01  -0.9000000E+00   0.0000000E+00   0.0000000E+00   0.0000000E+00   0.0000000E+00
   0.7647759E-01   0.4914917E-01  -0.9000000E+00   0.0000000E+00   0.0000000E+00   0.0000000E+00   0.0000000E+00
   0.5953280E-01   0.6870451E-01  -0.9000000E+00   0.0000000E+00   0.0000000E+00   0.0000000E+00   0.0000000E+00
   0.3776500E-01   0.8269382E-01  -0.9000000E+00   0.0000000E+00   0.0000000E+00   0.0000000E+00   0.0000000E+00
   0.1293771E-01   0.8998377E-01  -0.9000000E+00   0.0000000E+00   0.0000000E+00   0.0000000E+00   0.0000000E+00
  -0.1293771E-01   0.8998377E-01  -0.9000000E+00   0.0000000E+00   0.0000000E+00   0.0000000E+00   0.0000000E+00
  -0.3776500E-01   0.8269382E-01  -0.9000000E+00   0.0000000E+00   0.0000000E+00   0.0000000E+00   0.0000000E+00
  -0.5953280E-01   0.6870451E-01  -0.9000000E+00   0.0000000E+00   0.0000000E+00   0.0000000E+00   0.0000000E+00
  -0.7647759E-01   0.4914917E-01  -0.9000000E+00   0.0000000E+00   0.0000000E+00   0.0000000E+00   0.0000000E+00
  -0.8722664E-01   0.2561205E-01  -0.9000000E+00   0.0000000E+00   0.0000000E+00   0.0000000E+00   0.0000000E+00
  -0.9090909E-01   0.5150000E-16  -0.9000000E+00   0.0000000E+00   0.0000000E+00   0.0000000E+00   0.0000000E+00
   0.4545455E-01   0.0000000E+00  -0.9000000E+00   0.0000000E+00   0.0000000E+00   0.0000000E+00   0.0000000E+00
   0.4361332E-01   0.1280603E-01  -0.9000000E+00   0.0000000E+00   0.0000000E+00   0.0000000E+00   0.0000000E+00
   0.3823880E-01   0.2457458E-01  -0.9000000E+00   0.0000000E+00   0.0000000E+00   0.0000000E+00   0.0000000E+00
   0.2976640E-01   0.3435225E-01  -0.9000000E+00   0.0000000E+00   0.0000000E+00   0.0000000E+00   0.0000000E+00
   0.1888250E-01   0.4134691E-01  -0.9000000E+00   0.0000000E+00   0.0000000E+00   0.0000000E+00   0.0000000E+00
   0.6468857E-02   0.4499188E-01  -0.9000000E+00   0.0000000E+00   0.0000000E+00   0.0000000E+00   0.0000000E+00
  -0.6468857E-02   0.4499188E-01  -0.9000000E+00   0.0000000E+00   0.0000000E+00   0.0000000E+00   0.0000000E+00
  -0.1888250E-01   0.4134691E-01  -0.9000000E+00   0.0000000E+00   0.0000000E+00   0.0000000E+00   0.0000000E+00
  -0.2976640E-01   0.3435225E-01  -0.9000000E+00   0.0000000E+00   0.0000000E+00   0.0000000E+00   0.0000000E+00
  -0.3823880E-01   0.2457458E-01  -0.9000000E+00   0.0000000E+00   0.0000000E+00   0.0000000E+00   0.0000000E+00
  -0.4361332E-01   0.1280603E-01  -0.9000000E+00   0.0000000E+00   0.0000000E+00   0.0000000E+00   0.0000000E+00
  -0.4545455E-01   0.2580000E-16  -0.9000000E+00   0.0000000E+00   0.0000000E+00   0.0000000E+00   0.0000000E+00
     2       1      13      14