VARIABLES="X" "Y" "Z" "NX" "NY" "NZ" "A"
 ZONE N=         688 , E=         585  , F=FEPOINT,ET=QUADRILATERAL
  -0.5000000E+01  -0.1000000E+02  -0.5000000E+01   0.0000000E+00   0.0000000E+00   0.0000000E+00   0.0000000E+00
  -0.5000000E+01  -0.1000000E+02  -0.4375000E+01   0.0000000E+00   0.0000000E+00   0.0000000E+00   0.0000000E+00
  -0.5000000E+01  -0.1000000E+02  -0.3750000E+01   0.0000000E+00   0.0000000E+00   0.0000000E+00   0.0000000E+00
  -0.5000000E+01  -0.1000000E+02  -0.3125000E+01   0.0000000E+00   0.0000000E+00   0.0000000E+00   0.0000000E+00
  -0.5000000E+01  -0.1000000E+02  -0.2500000E+01   0.0000000E+00   0.0000000E+00   0.0000000E+00   0.0000000E+00
  -0.5000000E+01  -0.1000000E+02  -0.1875000E+01   0.0000000E+00   0.0000000E+00   0.0000000E+00   0.0000000E+00
  -0.5000000E+01  -0.1000000E+02  -0.1250000E+01   0.0000000E+00   0.0000000E+00   0.0000000E+00   0.0000000E+00
  -0.5000000E+01  -0.1000000E+02  -0.6250000E+00   0.0000000E+00   0.0000000E+00   0.0000000E+00   0.0000000E+00
  -0.5000000E+01  -0.1000000E+02   0.0000000E+00   0.0000000E+00   0.0000000E+00   0.0000000E+00   0.0000000E+00
  -0.5000000E+01  -0.9333333E+01  -0.5000000E+01   0.0000000E+00   0.0000000E+00   0.0000000E+00   0.0000000E+00
  -0.5000000E+01  -0.9333333E+01  -0.4375000E+01   0.0000000E+00   0.0000000E+00   0.0000000E+00   0.0000000E+00
  -0.5000000E+01  -0.9333333E+01  -0.3750000E+01   0.0000000E+00   0.0000000E+00   0.0000000E+00   0.0000000E+00
  -0.5000000E+01  -0.9333333E+01  -0.3125000E+01   0.0000000E+00   0.0000000E+00   0.0000000E+00   0.0000000E+00
  -0.5000000E+01  -0.9333333E+01  -0.2500000E+01   0.0000000E+00   0.0000000E+00   0.0000000E+00   0.0000000E+00
  -0.5000000E+01  -0.9333333E+01  -0.1875000E+01   0.0000000E+00   0.0000000E+00   0.0000000E+00   0.0000000E+00
  -0.5000000E+01  -0.9333333E+01  -0.1250000E+01   0.0000000E+00   0.0000000E+00   0.0000000E+00   0.0000000E+00
  -0.5000000E+01  -0.9333333E+01  -0.6250000E+00   0.0000000E+00   0.0000000E+00   0.0000000E+00   0.0000000E+00
  -0.5000000E+01  -0.9333333E+01   0.0000000E+00   0.0000000E+00   0.0000000E+00   0.0000000E+00   0.0000000E+00
  -0.5000000E+01  -0.8666667E+01  -0.5000000E+01   0.0000000E+00   0.0000000E+00   0.0000000E+00   0.0000000E+00
  -0.5000000E+01  -0.8666667E+01  -0.4375000E+01   0.0000000E+00   0.0000000E+00   0.0000000E+00   0.0000000E+00
  -0.5000000E+01  -0.8666667E+01  -0.3750000E+01   0.0000000E+00   0.0000000E+00   0.0000000E+00   0.0000000E+00
  -0.5000000E+01  -0.8666667E+01  -0.3125000E+01   0.0000000E+00   0.0000000E+00   0.0000000E+00   0.0000000E+00
  -0.5000000E+01  -0.8666667E+01  -0.2500000E+01   0.0000000E+00   0.0000000E+00   0.0000000E+00   0.0000000E+00
  -0.5000000E+01  -0.8666667E+01  -0.1875000E+01   0.0000000E+00   0.0000000E+00   0.0000000E+00   0.0000000E+00
  -0.5000000E+01  -0.8666667E+01  -0.1250000E+01   0.0000000E+00   0.0000000E+00   0.0000000E+00   0.0000000E+00
  -0.5000000E+01  -0.8666667E+01  -0.6250000E+00   0.0000000E+00   0.0000000E+00   0.0000000E+00   0.0000000E+00
  -0.5000000E+01  -0.8666667E+01   0.0000000E+00   0.0000000E+00   0.0000000E+00   0.0000000E+00   0.0000000E+00
  -0.5000000E+01  -0.8000000E+01  -0.5000000E+01   0.0000000E+00   0.0000000E+00   0.0000000E+00   0.0000000E+00
  -0.5000000E+01  -0.8000000E+01  -0.4375000E+01   0.0000000E+00   0.0000000E+00   0.0000000E+00   0.0000000E+00
  -0.5000000E+01  -0.8000000E+01  -0.3750000E+01   0.0000000E+00   0.0000000E+00   0.0000000E+00   0.0000000E+00
  -0.5000000E+01  -0.8000000E+01  -0.3125000E+01   0.0000000E+00   0.0000000E+00   0.0000000E+00   0.0000000E+00
  -0.5000000E+01  -0.8000000E+01  -0.2500000E+01   0.0000000E+00   0.0000000E+00   0.0000000E+00   0.0000000E+00
  -0.5000000E+01  -0.8000000E+01  -0.1875000E+01   0.0000000E+00   0.0000000E+00   0.0000000E+00   0.0000000E+00
  -0.5000000E+01  -0.8000000E+01  -0.1250000E+01   0.0000000E+00   0.0000000E+00   0.0000000E+00   0.0000000E+00
  -0.5000000E+01  -0.8000000E+01  -0.6250000E+00   0.0000000E+00   0.0000000E+00   0.0000000E+00   0.0000000E+00
  -0.5000000E+01  -0.8000000E+01   0.0000000E+00   0.0000000E+00   0.0000000E+00   0.0000000E+00   0.0000000E+00
  -0.5000000E+01  -0.7333333E+01  -0.5000000E+01   0.0000000E+00   0.0000000E+00   0.0000000E+00   0.0000000E+00
  -0.5000000E+01  -0.7333333E+01  -0.4375000E+01   0.0000000E+00   0.0000000E+00   0.0000000E+00   0.0000000E+00
  -0.5000000E+01  -0.7333333E+01  -0.3750000E+01   0.0000000E+00   0.0000000E+00   0.0000000E+00   0.0000000E+00
  -0.5000000E+01  -0.7333333E+01  -0.3125000E+01   0.0000000E+00   0.0000000E+00   0.0000000E+00   0.0000000E+00
  -0.5000000E+01  -0.7333333E+01  -0.2500000E+01   0.0000000E+00   0.0000000E+00   0.0000000E+00   0.0000000E+00
  -0.5000000E+01  -0.7333333E+01  -0.1875000E+01   0.0000000E+00   0.0000000E+00   0.0000000E+00   0.0000000E+00
  -0.5000000E+01  -0.7333333E+01  -0.1250000E+01   0.0000000E+00   0.0000000E+00   0.0000000E+00   0.0000000E+00
  -0.5000000E+01  -0.7333333E+01  -0.6250000E+00   0.0000000E+00   0.0000000E+00   0.0000000E+00   0.0000000E+00
  -0.5000000E+01  -0.7333333E+01   0.0000000E+00   0.0000000E+00   0.0000000E+00   0.0000000E+00   0.0000000E+00
  -0.5000000E+01  -0.6666667E+01  -0.5000000E+01   0.0000000E+00   0.0000000E+00   0.0000000E+00   0.0000000E+00
  -0.5000000E+01  -0.6666667E+01  -0.4375000E+01   0.0000000E+00   0.0000000E+00   0.0000000E+00   0.0000000E+00
  -0.5000000E+01  -0.6666667E+01  -0.3750000E+01   0.0000000E+00   0.0000000E+00   0.0000000E+00   0.0000000E+00
  -0.5000000E+01  -0.6666667E+01  -0.3125000E+01   0.0000000E+00   0.0000000E+00   0.0000000E+00   0.0000000E+00
  -0.5000000E+01  -0.6666667E+01  -0.2500000E+01   0.0000000E+00   0.0000000E+00   0.0000000E+00   0.0000000E+00
  -0.5000000E+01  -0.6666667E+01  -0.1875000E+01   0.0000000E+00   0.0000000E+00   0.0000000E+00   0.0000000E+00
  -0.5000000E+01  -0.6666667E+01  -0.1250000E+01   0.0000000E+00   0.0000000E+00   0.0000000E+00   0.0000000E+00
  -0.5000000E+01  -0.6666667E+01  -0.6250000E+00   0.0000000E+00   0.0000000E+00   0.0000000E+00   0.0000000E+00
  -0.5000000E+01  -0.6666667E+01   0.0000000E+00   0.0000000E+00   0.0000000E+00   0.0000000E+00   0.0000000E+00
  -0.5000000E+01  -0.6000000E+01  -0.5000000E+01   0.0000000E+00   0.0000000E+00   0.0000000E+00   0.0000000E+00
  -0.5000000E+01  -0.6000000E+01  -0.4375000E+01   0.0000000E+00   0.0000000E+00   0.0000000E+00   0.0000000E+00
  -0.5000000E+01  -0.6000000E+01  -0.3750000E+01   0.0000000E+00   0.0000000E+00   0.0000000E+00   0.0000000E+00
  -0.5000000E+01  -0.6000000E+01  -0.3125000E+01   0.0000000E+00   0.0000000E+00   0.0000000E+00   0.0000000E+00
  -0.5000000E+01  -0.6000000E+01  -0.2500000E+01   0.0000000E+00   0.0000000E+00   0.0000000E+00   0.0000000E+00
  -0.5000000E+01  -0.6000000E+01  -0.1875000E+01   0.0000000E+00   0.0000000E+00   0.0000000E+00   0.0000000E+00
  -0.5000000E+01  -0.6000000E+01  -0.1250000E+01   0.0000000E+00   0.0000000E+00   0.0000000E+00   0.0000000E+00
  -0.5000000E+01  -0.6000000E+01  -0.6250000E+00   0.0000000E+00   0.0000000E+00   0.0000000E+00   0.0000000E+00
  -0.5000000E+01  -0.6000000E+01   0.0000000E+00   0.0000000E+00   0.0000000E+00   0.0000000E+00   0.0000000E+00
  -0.5000000E+01  -0.5333333E+01  -0.5000000E+01   0.0000000E+00   0.0000000E+00   0.0000000E+00   0.0000000E+00
  -0.5000000E+01  -0.5333333E+01  -0.4375000E+01   0.0000000E+00   0.0000000E+00   0.0000000E+00   0.0000000E+00
  -0.5000000E+01  -0.5333333E+01  -0.3750000E+01   0.0000000E+00   0.0000000E+00   0.0000000E+00   0.0000000E+00
  -0.5000000E+01  -0.5333333E+01  -0.3125000E+01   0.0000000E+00   0.0000000E+00   0.0000000E+00   0.0000000E+00
  -0.5000000E+01  -0.5333333E+01  -0.2500000E+01   0.0000000E+00   0.0000000E+00   0.0000000E+00   0.0000000E+00
  -0.5000000E+01  -0.5333333E+01  -0.1875000E+01   0.0000000E+00   0.0000000E+00   0.0000000E+00   0.0000000E+00
  -0.5000000E+01  -0.5333333E+01  -0.1250000E+01   0.0000000E+00   0.0000000E+00   0.0000000E+00   0.0000000E+00
  -0.5000000E+01  -0.5333333E+01  -0.6250000E+00   0.0000000E+00   0.0000000E+00   0.0000000E+00   0.0000000E+00
  -0.5000000E+01  -0.5333333E+01   0.0000000E+00   0.0000000E+00   0.0000000E+00   0.0000000E+00   0.0000000E+00
  -0.5000000E+01  -0.4666667E+01  -0.5000000E+01   0.0000000E+00   0.0000000E+00   0.0000000E+00   0.0000000E+00
  -0.5000000E+01  -0.4666667E+01  -0.4375000E+01   0.0000000E+00   0.0000000E+00   0.0000000E+00   0.0000000E+00
  -0.5000000E+01  -0.4666667E+01  -0.3750000E+01   0.0000000E+00   0.0000000E+00   0.0000000E+00   0.0000000E+00
  -0.5000000E+01  -0.4666667E+01  -0.3125000E+01   0.0000000E+00   0.0000000E+00   0.0000000E+00   0.0000000E+00
  -0.5000000E+01  -0.4666667E+01  -0.2500000E+01   0.0000000E+00   0.0000000E+00   0.0000000E+00   0.0000000E+00
  -0.5000000E+01  -0.4666667E+01  -0.1875000E+01   0.0000000E+00   0.0000000E+00   0.0000000E+00   0.0000000E+00
  -0.5000000E+01  -0.4666667E+01  -0.1250000E+01   0.0000000E+00   0.0000000E+00   0.0000000E+00   0.0000000E+00
  -0.5000000E+01  -0.4666667E+01  -0.6250000E+00   0.0000000E+00   0.0000000E+00   0.0000000E+00   0.0000000E+00
  -0.5000000E+01  -0.4666667E+01   0.0000000E+00   0.0000000E+00   0.0000000E+00   0.0000000E+00   0.0000000E+00
  -0.5000000E+01  -0.4000000E+01  -0.5000000E+01   0.0000000E+00   0.0000000E+00   0.0000000E+00   0.0000000E+00
  -0.5000000E+01  -0.4000000E+01  -0.4375000E+01   0.0000000E+00   0.0000000E+00   0.0000000E+00   0.0000000E+00
  -0.5000000E+01  -0.4000000E+01  -0.3750000E+01   0.0000000E+00   0.0000000E+00   0.0000000E+00   0.0000000E+00
  -0.5000000E+01  -0.4000000E+01  -0.3125000E+01   0.0000000E+00   0.0000000E+00   0.0000000E+00   0.0000000E+00
  -0.5000000E+01  -0.4000000E+01  -0.2500000E+01   0.0000000E+00   0.0000000E+00   0.0000000E+00   0.0000000E+00
  -0.5000000E+01  -0.4000000E+01  -0.1875000E+01   0.0000000E+00   0.0000000E+00   0.0000000E+00   0.0000000E+00
  -0.5000000E+01  -0.4000000E+01  -0.1250000E+01   0.0000000E+00   0.0000000E+00   0.0000000E+00   0.0000000E+00
  -0.5000000E+01  -0.4000000E+01  -0.6250000E+00   0.0000000E+00   0.0000000E+00   0.0000000E+00   0.0000000E+00
  -0.5000000E+01  -0.4000000E+01   0.0000000E+00   0.0000000E+00   0.0000000E+00   0.0000000E+00   0.0000000E+00
  -0.5000000E+01  -0.3333333E+01  -0.5000000E+01   0.0000000E+00   0.0000000E+00   0.0000000E+00   0.0000000E+00
  -0.5000000E+01  -0.3333333E+01  -0.4375000E+01   0.0000000E+00   0.0000000E+00   0.0000000E+00   0.0000000E+00
  -0.5000000E+01  -0.3333333E+01  -0.3750000E+01   0.0000000E+00   0.0000000E+00   0.0000000E+00   0.0000000E+00
  -0.5000000E+01  -0.3333333E+01  -0.3125000E+01   0.0000000E+00   0.0000000E+00   0.0000000E+00   0.0000000E+00
  -0.5000000E+01  -0.3333333E+01  -0.2500000E+01   0.0000000E+00   0.0000000E+00   0.0000000E+00   0.0000000E+00
  -0.5000000E+01  -0.3333333E+01  -0.1875000E+01   0.0000000E+00   0.0000000E+00   0.0000000E+00   0.0000000E+00
  -0.5000000E+01  -0.3333333E+01  -0.1250000E+01   0.0000000E+00   0.0000000E+00   0.0000000E+00   0.0000000E+00
  -0.5000000E+01  -0.3333333E+01  -0.6250000E+00   0.0000000E+00   0.0000000E+00   0.0000000E+00   0.0000000E+00
  -0.5000000E+01  -0.3333333E+01   0.0000000E+00   0.0000000E+00   0.0000000E+00   0.0000000E+00   0.0000000E+00
  -0.5000000E+01  -0.2666667E+01  -0.5000000E+01   0.0000000E+00   0.0000000E+00   0.0000000E+00   0.0000000E+00
  -0.5000000E+01  -0.2666667E+01  -0.4375000E+01   0.0000000E+00   0.0000000E+00   0.0000000E+00   0.0000000E+00
  -0.5000000E+01  -0.2666667E+01  -0.3750000E+01   0.0000000E+00   0.0000000E+00   0.0000000E+00   0.0000000E+00
  -0.5000000E+01  -0.2666667E+01  -0.3125000E+01   0.0000000E+00   0.0000000E+00   0.0000000E+00   0.0000000E+00
  -0.5000000E+01  -0.2666667E+01  -0.2500000E+01   0.0000000E+00   0.0000000E+00   0.0000000E+00   0.0000000E+00
  -0.5000000E+01  -0.2666667E+01  -0.1875000E+01   0.0000000E+00   0.0000000E+00   0.0000000E+00   0.0000000E+00
  -0.5000000E+01  -0.2666667E+01  -0.1250000E+01   0.0000000E+00   0.0000000E+00   0.0000000E+00   0.0000000E+00
  -0.5000000E+01  -0.2666667E+01  -0.6250000E+00   0.0000000E+00   0.0000000E+00   0.0000000E+00   0.0000000E+00
  -0.5000000E+01  -0.2666667E+01   0.0000000E+00   0.0000000E+00   0.0000000E+00   0.0000000E+00   0.0000000E+00
  -0.5000000E+01  -0.2000000E+01  -0.5000000E+01   0.0000000E+00   0.0000000E+00   0.0000000E+00   0.0000000E+00
  -0.5000000E+01  -0.2000000E+01  -0.4375000E+01   0.0000000E+00   0.0000000E+00   0.0000000E+00   0.0000000E+00
  -0.5000000E+01  -0.2000000E+01  -0.3750000E+01   0.0000000E+00   0.0000000E+00   0.0000000E+00   0.0000000E+00
  -0.5000000E+01  -0.2000000E+01  -0.3125000E+01   0.0000000E+00   0.0000000E+00   0.0000000E+00   0.0000000E+00
  -0.5000000E+01  -0.2000000E+01  -0.2500000E+01   0.0000000E+00   0.0000000E+00   0.0000000E+00   0.0000000E+00
  -0.5000000E+01  -0.2000000E+01  -0.1875000E+01   0.0000000E+00   0.0000000E+00   0.0000000E+00   0.0000000E+00
  -0.5000000E+01  -0.2000000E+01  -0.1250000E+01   0.0000000E+00   0.0000000E+00   0.0000000E+00   0.0000000E+00
  -0.5000000E+01  -0.2000000E+01  -0.6250000E+00   0.0000000E+00   0.0000000E+00   0.0000000E+00   0.0000000E+00
  -0.5000000E+01  -0.2000000E+01   0.0000000E+00   0.0000000E+00   0.0000000E+00   0.0000000E+00   0.0000000E+00
  -0.5000000E+01  -0.1333333E+01  -0.5000000E+01   0.0000000E+00   0.0000000E+00   0.0000000E+00   0.0000000E+00
  -0.5000000E+01  -0.1333333E+01  -0.4375000E+01   0.0000000E+00   0.0000000E+00   0.0000000E+00   0.0000000E+00
  -0.5000000E+01  -0.1333333E+01  -0.3750000E+01   0.0000000E+00   0.0000000E+00   0.0000000E+00   0.0000000E+00
  -0.5000000E+01  -0.1333333E+01  -0.3125000E+01   0.0000000E+00   0.0000000E+00   0.0000000E+00   0.0000000E+00
  -0.5000000E+01  -0.1333333E+01  -0.2500000E+01   0.0000000E+00   0.0000000E+00   0.0000000E+00   0.0000000E+00
  -0.5000000E+01  -0.1333333E+01  -0.1875000E+01   0.0000000E+00   0.0000000E+00   0.0000000E+00   0.0000000E+00
  -0.5000000E+01  -0.1333333E+01  -0.1250000E+01   0.0000000E+00   0.0000000E+00   0.0000000E+00   0.0000000E+00
  -0.5000000E+01  -0.1333333E+01  -0.6250000E+00   0.0000000E+00   0.0000000E+00   0.0000000E+00   0.0000000E+00
  -0.5000000E+01  -0.1333333E+01   0.0000000E+00   0.0000000E+00   0.0000000E+00   0.0000000E+00   0.0000000E+00
  -0.5000000E+01  -0.6666670E+00  -0.5000000E+01   0.0000000E+00   0.0000000E+00   0.0000000E+00   0.0000000E+00
  -0.5000000E+01  -0.6666670E+00  -0.4375000E+01   0.0000000E+00   0.0000000E+00   0.0000000E+00   0.0000000E+00
  -0.5000000E+01  -0.6666670E+00  -0.3750000E+01   0.0000000E+00   0.0000000E+00   0.0000000E+00   0.0000000E+00
  -0.5000000E+01  -0.6666670E+00  -0.3125000E+01   0.0000000E+00   0.0000000E+00   0.0000000E+00   0.0000000E+00
  -0.5000000E+01  -0.6666670E+00  -0.2500000E+01   0.0000000E+00   0.0000000E+00   0.0000000E+00   0.0000000E+00
  -0.5000000E+01  -0.6666670E+00  -0.1875000E+01   0.0000000E+00   0.0000000E+00   0.0000000E+00   0.0000000E+00
  -0.5000000E+01  -0.6666670E+00  -0.1250000E+01   0.0000000E+00   0.0000000E+00   0.0000000E+00   0.0000000E+00
  -0.5000000E+01  -0.6666670E+00  -0.6250000E+00   0.0000000E+00   0.0000000E+00   0.0000000E+00   0.0000000E+00
  -0.5000000E+01  -0.6666670E+00   0.0000000E+00   0.0000000E+00   0.0000000E+00   0.0000000E+00   0.0000000E+00
  -0.5000000E+01   0.0000000E+00  -0.5000000E+01   0.0000000E+00   0.0000000E+00   0.0000000E+00   0.0000000E+00
  -0.5000000E+01   0.0000000E+00  -0.4375000E+01   0.0000000E+00   0.0000000E+00   0.0000000E+00   0.0000000E+00
  -0.5000000E+01   0.0000000E+00  -0.3750000E+01   0.0000000E+00   0.0000000E+00   0.0000000E+00   0.0000000E+00
  -0.5000000E+01   0.0000000E+00  -0.3125000E+01   0.0000000E+00   0.0000000E+00   0.0000000E+00   0.0000000E+00
  -0.5000000E+01   0.0000000E+00  -0.2500000E+01   0.0000000E+00   0.0000000E+00   0.0000000E+00   0.0000000E+00
  -0.5000000E+01   0.0000000E+00  -0.1875000E+01   0.0000000E+00   0.0000000E+00   0.0000000E+00   0.0000000E+00
  -0.5000000E+01   0.0000000E+00  -0.1250000E+01   0.0000000E+00   0.0000000E+00   0.0000000E+00   0.0000000E+00
  -0.5000000E+01   0.0000000E+00  -0.6250000E+00   0.0000000E+00   0.0000000E+00   0.0000000E+00   0.0000000E+00
  -0.5000000E+01   0.0000000E+00   0.0000000E+00   0.0000000E+00   0.0000000E+00   0.0000000E+00   0.0000000E+00
  -0.5000000E+01   0.0000000E+00  -0.5000000E+01   0.0000000E+00   0.0000000E+00   0.0000000E+00   0.0000000E+00
  -0.4333333E+01   0.0000000E+00  -0.5000000E+01   0.0000000E+00   0.0000000E+00   0.0000000E+00   0.0000000E+00
  -0.3666667E+01   0.0000000E+00  -0.5000000E+01   0.0000000E+00   0.0000000E+00   0.0000000E+00   0.0000000E+00
  -0.3000000E+01   0.0000000E+00  -0.5000000E+01   0.0000000E+00   0.0000000E+00   0.0000000E+00   0.0000000E+00
  -0.2333333E+01   0.0000000E+00  -0.5000000E+01   0.0000000E+00   0.0000000E+00   0.0000000E+00   0.0000000E+00
  -0.1666667E+01   0.0000000E+00  -0.5000000E+01   0.0000000E+00   0.0000000E+00   0.0000000E+00   0.0000000E+00
  -0.1000000E+01   0.0000000E+00  -0.5000000E+01   0.0000000E+00   0.0000000E+00   0.0000000E+00   0.0000000E+00
  -0.3333335E+00   0.0000000E+00  -0.5000000E+01   0.0000000E+00   0.0000000E+00   0.0000000E+00   0.0000000E+00
   0.3333335E+00   0.0000000E+00  -0.5000000E+01   0.0000000E+00   0.0000000E+00   0.0000000E+00   0.0000000E+00
   0.1000000E+01   0.0000000E+00  -0.5000000E+01   0.0000000E+00   0.0000000E+00   0.0000000E+00   0.0000000E+00
   0.1666667E+01   0.0000000E+00  -0.5000000E+01   0.0000000E+00   0.0000000E+00   0.0000000E+00   0.0000000E+00
   0.2333333E+01   0.0000000E+00  -0.5000000E+01   0.0000000E+00   0.0000000E+00   0.0000000E+00   0.0000000E+00
   0.3000000E+01   0.0000000E+00  -0.5000000E+01   0.0000000E+00   0.0000000E+00   0.0000000E+00   0.0000000E+00
   0.3666667E+01   0.0000000E+00  -0.5000000E+01   0.0000000E+00   0.0000000E+00   0.0000000E+00   0.0000000E+00
   0.4333333E+01   0.0000000E+00  -0.5000000E+01   0.0000000E+00   0.0000000E+00   0.0000000E+00   0.0000000E+00
   0.5000000E+01   0.0000000E+00  -0.5000000E+01   0.0000000E+00   0.0000000E+00   0.0000000E+00   0.0000000E+00
  -0.5000000E+01  -0.6666667E+00  -0.5000000E+01   0.0000000E+00   0.0000000E+00   0.0000000E+00   0.0000000E+00
  -0.4333333E+01  -0.6666667E+00  -0.5000000E+01   0.0000000E+00   0.0000000E+00   0.0000000E+00   0.0000000E+00
  -0.3666667E+01  -0.6666667E+00  -0.5000000E+01   0.0000000E+00   0.0000000E+00   0.0000000E+00   0.0000000E+00
  -0.3000000E+01  -0.6666667E+00  -0.5000000E+01   0.0000000E+00   0.0000000E+00   0.0000000E+00   0.0000000E+00
  -0.2333333E+01  -0.6666667E+00  -0.5000000E+01   0.0000000E+00   0.0000000E+00   0.0000000E+00   0.0000000E+00
  -0.1666667E+01  -0.6666667E+00  -0.5000000E+01   0.0000000E+00   0.0000000E+00   0.0000000E+00   0.0000000E+00
  -0.1000000E+01  -0.6666667E+00  -0.5000000E+01   0.0000000E+00   0.0000000E+00   0.0000000E+00   0.0000000E+00
  -0.3333335E+00  -0.6666667E+00  -0.5000000E+01   0.0000000E+00   0.0000000E+00   0.0000000E+00   0.0000000E+00
   0.3333335E+00  -0.6666667E+00  -0.5000000E+01   0.0000000E+00   0.0000000E+00   0.0000000E+00   0.0000000E+00
   0.1000000E+01  -0.6666667E+00  -0.5000000E+01   0.0000000E+00   0.0000000E+00   0.0000000E+00   0.0000000E+00
   0.1666667E+01  -0.6666667E+00  -0.5000000E+01   0.0000000E+00   0.0000000E+00   0.0000000E+00   0.0000000E+00
   0.2333333E+01  -0.6666667E+00  -0.5000000E+01   0.0000000E+00   0.0000000E+00   0.0000000E+00   0.0000000E+00
   0.3000000E+01  -0.6666667E+00  -0.5000000E+01   0.0000000E+00   0.0000000E+00   0.0000000E+00   0.0000000E+00
   0.3666667E+01  -0.6666667E+00  -0.5000000E+01   0.0000000E+00   0.0000000E+00   0.0000000E+00   0.0000000E+00
   0.4333333E+01  -0.6666667E+00  -0.5000000E+01   0.0000000E+00   0.0000000E+00   0.0000000E+00   0.0000000E+00
   0.5000000E+01  -0.6666667E+00  -0.5000000E+01   0.0000000E+00   0.0000000E+00   0.0000000E+00   0.0000000E+00
  -0.5000000E+01  -0.1333333E+01  -0.5000000E+01   0.0000000E+00   0.0000000E+00   0.0000000E+00   0.0000000E+00
  -0.4333333E+01  -0.1333333E+01  -0.5000000E+01   0.0000000E+00   0.0000000E+00   0.0000000E+00   0.0000000E+00
  -0.3666667E+01  -0.1333333E+01  -0.5000000E+01   0.0000000E+00   0.0000000E+00   0.0000000E+00   0.0000000E+00
  -0.3000000E+01  -0.1333333E+01  -0.5000000E+01   0.0000000E+00   0.0000000E+00   0.0000000E+00   0.0000000E+00
  -0.2333333E+01  -0.1333333E+01  -0.5000000E+01   0.0000000E+00   0.0000000E+00   0.0000000E+00   0.0000000E+00
  -0.1666667E+01  -0.1333333E+01  -0.5000000E+01   0.0000000E+00   0.0000000E+00   0.0000000E+00   0.0000000E+00
  -0.1000000E+01  -0.1333333E+01  -0.5000000E+01   0.0000000E+00   0.0000000E+00   0.0000000E+00   0.0000000E+00
  -0.3333335E+00  -0.1333333E+01  -0.5000000E+01   0.0000000E+00   0.0000000E+00   0.0000000E+00   0.0000000E+00
   0.3333335E+00  -0.1333333E+01  -0.5000000E+01   0.0000000E+00   0.0000000E+00   0.0000000E+00   0.0000000E+00
   0.1000000E+01  -0.1333333E+01  -0.5000000E+01   0.0000000E+00   0.0000000E+00   0.0000000E+00   0.0000000E+00
   0.1666667E+01  -0.1333333E+01  -0.5000000E+01   0.0000000E+00   0.0000000E+00   0.0000000E+00   0.0000000E+00
   0.2333333E+01  -0.1333333E+01  -0.5000000E+01   0.0000000E+00   0.0000000E+00   0.0000000E+00   0.0000000E+00
   0.3000000E+01  -0.1333333E+01  -0.5000000E+01   0.0000000E+00   0.0000000E+00   0.0000000E+00   0.0000000E+00
   0.3666667E+01  -0.1333333E+01  -0.5000000E+01   0.0000000E+00   0.0000000E+00   0.0000000E+00   0.0000000E+00
   0.4333333E+01  -0.1333333E+01  -0.5000000E+01   0.0000000E+00   0.0000000E+00   0.0000000E+00   0.0000000E+00
   0.5000000E+01  -0.1333333E+01  -0.5000000E+01   0.0000000E+00   0.0000000E+00   0.0000000E+00   0.0000000E+00
  -0.5000000E+01  -0.2000000E+01  -0.5000000E+01   0.0000000E+00   0.0000000E+00   0.0000000E+00   0.0000000E+00
  -0.4333333E+01  -0.2000000E+01  -0.5000000E+01   0.0000000E+00   0.0000000E+00   0.0000000E+00   0.0000000E+00
  -0.3666667E+01  -0.2000000E+01  -0.5000000E+01   0.0000000E+00   0.0000000E+00   0.0000000E+00   0.0000000E+00
  -0.3000000E+01  -0.2000000E+01  -0.5000000E+01   0.0000000E+00   0.0000000E+00   0.0000000E+00   0.0000000E+00
  -0.2333333E+01  -0.2000000E+01  -0.5000000E+01   0.0000000E+00   0.0000000E+00   0.0000000E+00   0.0000000E+00
  -0.1666667E+01  -0.2000000E+01  -0.5000000E+01   0.0000000E+00   0.0000000E+00   0.0000000E+00   0.0000000E+00
  -0.1000000E+01  -0.2000000E+01  -0.5000000E+01   0.0000000E+00   0.0000000E+00   0.0000000E+00   0.0000000E+00
  -0.3333335E+00  -0.2000000E+01  -0.5000000E+01   0.0000000E+00   0.0000000E+00   0.0000000E+00   0.0000000E+00
   0.3333335E+00  -0.2000000E+01  -0.5000000E+01   0.0000000E+00   0.0000000E+00   0.0000000E+00   0.0000000E+00
   0.1000000E+01  -0.2000000E+01  -0.5000000E+01   0.0000000E+00   0.0000000E+00   0.0000000E+00   0.0000000E+00
   0.1666667E+01  -0.2000000E+01  -0.5000000E+01   0.0000000E+00   0.0000000E+00   0.0000000E+00   0.0000000E+00
   0.2333333E+01  -0.2000000E+01  -0.5000000E+01   0.0000000E+00   0.0000000E+00   0.0000000E+00   0.0000000E+00
   0.3000000E+01  -0.2000000E+01  -0.5000000E+01   0.0000000E+00   0.0000000E+00   0.0000000E+00   0.0000000E+00
   0.3666667E+01  -0.2000000E+01  -0.5000000E+01   0.0000000E+00   0.0000000E+00   0.0000000E+00   0.0000000E+00
   0.4333333E+01  -0.2000000E+01  -0.5000000E+01   0.0000000E+00   0.0000000E+00   0.0000000E+00   0.0000000E+00
   0.5000000E+01  -0.2000000E+01  -0.5000000E+01   0.0000000E+00   0.0000000E+00   0.0000000E+00   0.0000000E+00
  -0.5000000E+01  -0.2666667E+01  -0.5000000E+01   0.0000000E+00   0.0000000E+00   0.0000000E+00   0.0000000E+00
  -0.4333333E+01  -0.2666667E+01  -0.5000000E+01   0.0000000E+00   0.0000000E+00   0.0000000E+00   0.0000000E+00
  -0.3666667E+01  -0.2666667E+01  -0.5000000E+01   0.0000000E+00   0.0000000E+00   0.0000000E+00   0.0000000E+00
  -0.3000000E+01  -0.2666667E+01  -0.5000000E+01   0.0000000E+00   0.0000000E+00   0.0000000E+00   0.0000000E+00
  -0.2333333E+01  -0.2666667E+01  -0.5000000E+01   0.0000000E+00   0.0000000E+00   0.0000000E+00   0.0000000E+00
  -0.1666667E+01  -0.2666667E+01  -0.5000000E+01   0.0000000E+00   0.0000000E+00   0.0000000E+00   0.0000000E+00
  -0.1000000E+01  -0.2666667E+01  -0.5000000E+01   0.0000000E+00   0.0000000E+00   0.0000000E+00   0.0000000E+00
  -0.3333335E+00  -0.2666667E+01  -0.5000000E+01   0.0000000E+00   0.0000000E+00   0.0000000E+00   0.0000000E+00
   0.3333335E+00  -0.2666667E+01  -0.5000000E+01   0.0000000E+00   0.0000000E+00   0.0000000E+00   0.0000000E+00
   0.1000000E+01  -0.2666667E+01  -0.5000000E+01   0.0000000E+00   0.0000000E+00   0.0000000E+00   0.0000000E+00
   0.1666667E+01  -0.2666667E+01  -0.5000000E+01   0.0000000E+00   0.0000000E+00   0.0000000E+00   0.0000000E+00
   0.2333333E+01  -0.2666667E+01  -0.5000000E+01   0.0000000E+00   0.0000000E+00   0.0000000E+00   0.0000000E+00
   0.3000000E+01  -0.2666667E+01  -0.5000000E+01   0.0000000E+00   0.0000000E+00   0.0000000E+00   0.0000000E+00
   0.3666667E+01  -0.2666667E+01  -0.5000000E+01   0.0000000E+00   0.0000000E+00   0.0000000E+00   0.0000000E+00
   0.4333333E+01  -0.2666667E+01  -0.5000000E+01   0.0000000E+00   0.0000000E+00   0.0000000E+00   0.0000000E+00
   0.5000000E+01  -0.2666667E+01  -0.5000000E+01   0.0000000E+00   0.0000000E+00   0.0000000E+00   0.0000000E+00
  -0.5000000E+01  -0.3333333E+01  -0.5000000E+01   0.0000000E+00   0.0000000E+00   0.0000000E+00   0.0000000E+00
  -0.4333333E+01  -0.3333333E+01  -0.5000000E+01   0.0000000E+00   0.0000000E+00   0.0000000E+00   0.0000000E+00
  -0.3666667E+01  -0.3333333E+01  -0.5000000E+01   0.0000000E+00   0.0000000E+00   0.0000000E+00   0.0000000E+00
  -0.3000000E+01  -0.3333333E+01  -0.5000000E+01   0.0000000E+00   0.0000000E+00   0.0000000E+00   0.0000000E+00
  -0.2333333E+01  -0.3333333E+01  -0.5000000E+01   0.0000000E+00   0.0000000E+00   0.0000000E+00   0.0000000E+00
  -0.1666667E+01  -0.3333333E+01  -0.5000000E+01   0.0000000E+00   0.0000000E+00   0.0000000E+00   0.0000000E+00
  -0.1000000E+01  -0.3333333E+01  -0.5000000E+01   0.0000000E+00   0.0000000E+00   0.0000000E+00   0.0000000E+00
  -0.3333335E+00  -0.3333333E+01  -0.5000000E+01   0.0000000E+00   0.0000000E+00   0.0000000E+00   0.0000000E+00
   0.3333335E+00  -0.3333333E+01  -0.5000000E+01   0.0000000E+00   0.0000000E+00   0.0000000E+00   0.0000000E+00
   0.1000000E+01  -0.3333333E+01  -0.5000000E+01   0.0000000E+00   0.0000000E+00   0.0000000E+00   0.0000000E+00
   0.1666667E+01  -0.3333333E+01  -0.5000000E+01   0.0000000E+00   0.0000000E+00   0.0000000E+00   0.0000000E+00
   0.2333333E+01  -0.3333333E+01  -0.5000000E+01   0.0000000E+00   0.0000000E+00   0.0000000E+00   0.0000000E+00
   0.3000000E+01  -0.3333333E+01  -0.5000000E+01   0.0000000E+00   0.0000000E+00   0.0000000E+00   0.0000000E+00
   0.3666667E+01  -0.3333333E+01  -0.5000000E+01   0.0000000E+00   0.0000000E+00   0.0000000E+00   0.0000000E+00
   0.4333333E+01  -0.3333333E+01  -0.5000000E+01   0.0000000E+00   0.0000000E+00   0.0000000E+00   0.0000000E+00
   0.5000000E+01  -0.3333333E+01  -0.5000000E+01   0.0000000E+00   0.0000000E+00   0.0000000E+00   0.0000000E+00
  -0.5000000E+01  -0.4000000E+01  -0.5000000E+01   0.0000000E+00   0.0000000E+00   0.0000000E+00   0.0000000E+00
  -0.4333333E+01  -0.4000000E+01  -0.5000000E+01   0.0000000E+00   0.0000000E+00   0.0000000E+00   0.0000000E+00
  -0.3666667E+01  -0.4000000E+01  -0.5000000E+01   0.0000000E+00   0.0000000E+00   0.0000000E+00   0.0000000E+00
  -0.3000000E+01  -0.4000000E+01  -0.5000000E+01   0.0000000E+00   0.0000000E+00   0.0000000E+00   0.0000000E+00
  -0.2333333E+01  -0.4000000E+01  -0.5000000E+01   0.0000000E+00   0.0000000E+00   0.0000000E+00   0.0000000E+00
  -0.1666667E+01  -0.4000000E+01  -0.5000000E+01   0.0000000E+00   0.0000000E+00   0.0000000E+00   0.0000000E+00
  -0.1000000E+01  -0.4000000E+01  -0.5000000E+01   0.0000000E+00   0.0000000E+00   0.0000000E+00   0.0000000E+00
  -0.3333335E+00  -0.4000000E+01  -0.5000000E+01   0.0000000E+00   0.0000000E+00   0.0000000E+00   0.0000000E+00
   0.3333335E+00  -0.4000000E+01  -0.5000000E+01   0.0000000E+00   0.0000000E+00   0.0000000E+00   0.0000000E+00
   0.1000000E+01  -0.4000000E+01  -0.5000000E+01   0.0000000E+00   0.0000000E+00   0.0000000E+00   0.0000000E+00
   0.1666667E+01  -0.4000000E+01  -0.5000000E+01   0.0000000E+00   0.0000000E+00   0.0000000E+00   0.0000000E+00
   0.2333333E+01  -0.4000000E+01  -0.5000000E+01   0.0000000E+00   0.0000000E+00   0.0000000E+00   0.0000000E+00
   0.3000000E+01  -0.4000000E+01  -0.5000000E+01   0.0000000E+00   0.0000000E+00   0.0000000E+00   0.0000000E+00
   0.3666667E+01  -0.4000000E+01  -0.5000000E+01   0.0000000E+00   0.0000000E+00   0.0000000E+00   0.0000000E+00
   0.4333333E+01  -0.4000000E+01  -0.5000000E+01   0.0000000E+00   0.0000000E+00   0.0000000E+00   0.0000000E+00
   0.5000000E+01  -0.4000000E+01  -0.5000000E+01   0.0000000E+00   0.0000000E+00   0.0000000E+00   0.0000000E+00
  -0.5000000E+01  -0.4666667E+01  -0.5000000E+01   0.0000000E+00   0.0000000E+00   0.0000000E+00   0.0000000E+00
  -0.4333333E+01  -0.4666667E+01  -0.5000000E+01   0.0000000E+00   0.0000000E+00   0.0000000E+00   0.0000000E+00
  -0.3666667E+01  -0.4666667E+01  -0.5000000E+01   0.0000000E+00   0.0000000E+00   0.0000000E+00   0.0000000E+00
  -0.3000000E+01  -0.4666667E+01  -0.5000000E+01   0.0000000E+00   0.0000000E+00   0.0000000E+00   0.0000000E+00
  -0.2333333E+01  -0.4666667E+01  -0.5000000E+01   0.0000000E+00   0.0000000E+00   0.0000000E+00   0.0000000E+00
  -0.1666667E+01  -0.4666667E+01  -0.5000000E+01   0.0000000E+00   0.0000000E+00   0.0000000E+00   0.0000000E+00
  -0.1000000E+01  -0.4666667E+01  -0.5000000E+01   0.0000000E+00   0.0000000E+00   0.0000000E+00   0.0000000E+00
  -0.3333335E+00  -0.4666667E+01  -0.5000000E+01   0.0000000E+00   0.0000000E+00   0.0000000E+00   0.0000000E+00