VARIABLES="X" "Y" "Z" "NX" "NY" "NZ" "A"
 ZONE N=         611 , E=         504  , F=FEPOINT,ET=QUADRILATERAL
  -0.5000000E+01  -0.1000000E+02  -0.5000000E+01   0.0000000E+00   0.0000000E+00   0.0000000E+00   0.0000000E+00
  -0.5000000E+01  -0.1000000E+02  -0.4166667E+01   0.0000000E+00   0.0000000E+00   0.0000000E+00   0.0000000E+00
  -0.5000000E+01  -0.1000000E+02  -0.3333333E+01   0.0000000E+00   0.0000000E+00   0.0000000E+00   0.0000000E+00
  -0.5000000E+01  -0.1000000E+02  -0.2500000E+01   0.0000000E+00   0.0000000E+00   0.0000000E+00   0.0000000E+00
  -0.5000000E+01  -0.1000000E+02  -0.1666667E+01   0.0000000E+00   0.0000000E+00   0.0000000E+00   0.0000000E+00
  -0.5000000E+01  -0.1000000E+02  -0.8333335E+00   0.0000000E+00   0.0000000E+00   0.0000000E+00   0.0000000E+00
  -0.5000000E+01  -0.1000000E+02   0.0000000E+00   0.0000000E+00   0.0000000E+00   0.0000000E+00   0.0000000E+00
  -0.5000000E+01  -0.9166667E+01  -0.5000000E+01   0.0000000E+00   0.0000000E+00   0.0000000E+00   0.0000000E+00
  -0.5000000E+01  -0.9166667E+01  -0.4166667E+01   0.0000000E+00   0.0000000E+00   0.0000000E+00   0.0000000E+00
  -0.5000000E+01  -0.9166667E+01  -0.3333333E+01   0.0000000E+00   0.0000000E+00   0.0000000E+00   0.0000000E+00
  -0.5000000E+01  -0.9166667E+01  -0.2500000E+01   0.0000000E+00   0.0000000E+00   0.0000000E+00   0.0000000E+00
  -0.5000000E+01  -0.9166667E+01  -0.1666667E+01   0.0000000E+00   0.0000000E+00   0.0000000E+00   0.0000000E+00
  -0.5000000E+01  -0.9166667E+01  -0.8333335E+00   0.0000000E+00   0.0000000E+00   0.0000000E+00   0.0000000E+00
  -0.5000000E+01  -0.9166667E+01   0.0000000E+00   0.0000000E+00   0.0000000E+00   0.0000000E+00   0.0000000E+00
  -0.5000000E+01  -0.8333333E+01  -0.5000000E+01   0.0000000E+00   0.0000000E+00   0.0000000E+00   0.0000000E+00
  -0.5000000E+01  -0.8333333E+01  -0.4166667E+01   0.0000000E+00   0.0000000E+00   0.0000000E+00   0.0000000E+00
  -0.5000000E+01  -0.8333333E+01  -0.3333333E+01   0.0000000E+00   0.0000000E+00   0.0000000E+00   0.0000000E+00
  -0.5000000E+01  -0.8333333E+01  -0.2500000E+01   0.0000000E+00   0.0000000E+00   0.0000000E+00   0.0000000E+00
  -0.5000000E+01  -0.8333333E+01  -0.1666667E+01   0.0000000E+00   0.0000000E+00   0.0000000E+00   0.0000000E+00
  -0.5000000E+01  -0.8333333E+01  -0.8333335E+00   0.0000000E+00   0.0000000E+00   0.0000000E+00   0.0000000E+00
  -0.5000000E+01  -0.8333333E+01   0.0000000E+00   0.0000000E+00   0.0000000E+00   0.0000000E+00   0.0000000E+00
  -0.5000000E+01  -0.7500000E+01  -0.5000000E+01   0.0000000E+00   0.0000000E+00   0.0000000E+00   0.0000000E+00
  -0.5000000E+01  -0.7500000E+01  -0.4166667E+01   0.0000000E+00   0.0000000E+00   0.0000000E+00   0.0000000E+00
  -0.5000000E+01  -0.7500000E+01  -0.3333333E+01   0.0000000E+00   0.0000000E+00   0.0000000E+00   0.0000000E+00
  -0.5000000E+01  -0.7500000E+01  -0.2500000E+01   0.0000000E+00   0.0000000E+00   0.0000000E+00   0.0000000E+00
  -0.5000000E+01  -0.7500000E+01  -0.1666667E+01   0.0000000E+00   0.0000000E+00   0.0000000E+00   0.0000000E+00
  -0.5000000E+01  -0.7500000E+01  -0.8333335E+00   0.0000000E+00   0.0000000E+00   0.0000000E+00   0.0000000E+00
  -0.5000000E+01  -0.7500000E+01   0.0000000E+00   0.0000000E+00   0.0000000E+00   0.0000000E+00   0.0000000E+00
  -0.5000000E+01  -0.6666667E+01  -0.5000000E+01   0.0000000E+00   0.0000000E+00   0.0000000E+00   0.0000000E+00
  -0.5000000E+01  -0.6666667E+01  -0.4166667E+01   0.0000000E+00   0.0000000E+00   0.0000000E+00   0.0000000E+00
  -0.5000000E+01  -0.6666667E+01  -0.3333333E+01   0.0000000E+00   0.0000000E+00   0.0000000E+00   0.0000000E+00
  -0.5000000E+01  -0.6666667E+01  -0.2500000E+01   0.0000000E+00   0.0000000E+00   0.0000000E+00   0.0000000E+00
  -0.5000000E+01  -0.6666667E+01  -0.1666667E+01   0.0000000E+00   0.0000000E+00   0.0000000E+00   0.0000000E+00
  -0.5000000E+01  -0.6666667E+01  -0.8333335E+00   0.0000000E+00   0.0000000E+00   0.0000000E+00   0.0000000E+00
  -0.5000000E+01  -0.6666667E+01   0.0000000E+00   0.0000000E+00   0.0000000E+00   0.0000000E+00   0.0000000E+00
  -0.5000000E+01  -0.5833333E+01  -0.5000000E+01   0.0000000E+00   0.0000000E+00   0.0000000E+00   0.0000000E+00
  -0.5000000E+01  -0.5833333E+01  -0.4166667E+01   0.0000000E+00   0.0000000E+00   0.0000000E+00   0.0000000E+00
  -0.5000000E+01  -0.5833333E+01  -0.3333333E+01   0.0000000E+00   0.0000000E+00   0.0000000E+00   0.0000000E+00
  -0.5000000E+01  -0.5833333E+01  -0.2500000E+01   0.0000000E+00   0.0000000E+00   0.0000000E+00   0.0000000E+00
  -0.5000000E+01  -0.5833333E+01  -0.1666667E+01   0.0000000E+00   0.0000000E+00   0.0000000E+00   0.0000000E+00
  -0.5000000E+01  -0.5833333E+01  -0.8333335E+00   0.0000000E+00   0.0000000E+00   0.0000000E+00   0.0000000E+00
  -0.5000000E+01  -0.5833333E+01   0.0000000E+00   0.0000000E+00   0.0000000E+00   0.0000000E+00   0.0000000E+00
  -0.5000000E+01  -0.5000000E+01  -0.5000000E+01   0.0000000E+00   0.0000000E+00   0.0000000E+00   0.0000000E+00
  -0.5000000E+01  -0.5000000E+01  -0.4166667E+01   0.0000000E+00   0.0000000E+00   0.0000000E+00   0.0000000E+00
  -0.5000000E+01  -0.5000000E+01  -0.3333333E+01   0.0000000E+00   0.0000000E+00   0.0000000E+00   0.0000000E+00
  -0.5000000E+01  -0.5000000E+01  -0.2500000E+01   0.0000000E+00   0.0000000E+00   0.0000000E+00   0.0000000E+00
  -0.5000000E+01  -0.5000000E+01  -0.1666667E+01   0.0000000E+00   0.0000000E+00   0.0000000E+00   0.0000000E+00
  -0.5000000E+01  -0.5000000E+01  -0.8333335E+00   0.0000000E+00   0.0000000E+00   0.0000000E+00   0.0000000E+00
  -0.5000000E+01  -0.5000000E+01   0.0000000E+00   0.0000000E+00   0.0000000E+00   0.0000000E+00   0.0000000E+00
  -0.5000000E+01  -0.4166667E+01  -0.5000000E+01   0.0000000E+00   0.0000000E+00   0.0000000E+00   0.0000000E+00
  -0.5000000E+01  -0.4166667E+01  -0.4166667E+01   0.0000000E+00   0.0000000E+00   0.0000000E+00   0.0000000E+00
  -0.5000000E+01  -0.4166667E+01  -0.3333333E+01   0.0000000E+00   0.0000000E+00   0.0000000E+00   0.0000000E+00
  -0.5000000E+01  -0.4166667E+01  -0.2500000E+01   0.0000000E+00   0.0000000E+00   0.0000000E+00   0.0000000E+00
  -0.5000000E+01  -0.4166667E+01  -0.1666667E+01   0.0000000E+00   0.0000000E+00   0.0000000E+00   0.0000000E+00
  -0.5000000E+01  -0.4166667E+01  -0.8333335E+00   0.0000000E+00   0.0000000E+00   0.0000000E+00   0.0000000E+00
  -0.5000000E+01  -0.4166667E+01   0.0000000E+00   0.0000000E+00   0.0000000E+00   0.0000000E+00   0.0000000E+00
  -0.5000000E+01  -0.3333333E+01  -0.5000000E+01   0.0000000E+00   0.0000000E+00   0.0000000E+00   0.0000000E+00
  -0.5000000E+01  -0.3333333E+01  -0.4166667E+01   0.0000000E+00   0.0000000E+00   0.0000000E+00   0.0000000E+00
  -0.5000000E+01  -0.3333333E+01  -0.3333333E+01   0.0000000E+00   0.0000000E+00   0.0000000E+00   0.0000000E+00
  -0.5000000E+01  -0.3333333E+01  -0.2500000E+01   0.0000000E+00   0.0000000E+00   0.0000000E+00   0.0000000E+00
  -0.5000000E+01  -0.3333333E+01  -0.1666667E+01   0.0000000E+00   0.0000000E+00   0.0000000E+00   0.0000000E+00
  -0.5000000E+01  -0.3333333E+01  -0.8333335E+00   0.0000000E+00   0.0000000E+00   0.0000000E+00   0.0000000E+00
  -0.5000000E+01  -0.3333333E+01   0.0000000E+00   0.0000000E+00   0.0000000E+00   0.0000000E+00   0.0000000E+00
  -0.5000000E+01  -0.2500000E+01  -0.5000000E+01   0.0000000E+00   0.0000000E+00   0.0000000E+00   0.0000000E+00
  -0.5000000E+01  -0.2500000E+01  -0.4166667E+01   0.0000000E+00   0.0000000E+00   0.0000000E+00   0.0000000E+00
  -0.5000000E+01  -0.2500000E+01  -0.3333333E+01   0.0000000E+00   0.0000000E+00   0.0000000E+00   0.0000000E+00
  -0.5000000E+01  -0.2500000E+01  -0.2500000E+01   0.0000000E+00   0.0000000E+00   0.0000000E+00   0.0000000E+00
  -0.5000000E+01  -0.2500000E+01  -0.1666667E+01   0.0000000E+00   0.0000000E+00   0.0000000E+00   0.0000000E+00
  -0.5000000E+01  -0.2500000E+01  -0.8333335E+00   0.0000000E+00   0.0000000E+00   0.0000000E+00   0.0000000E+00
  -0.5000000E+01  -0.2500000E+01   0.0000000E+00   0.0000000E+00   0.0000000E+00   0.0000000E+00   0.0000000E+00
  -0.5000000E+01  -0.1666667E+01  -0.5000000E+01   0.0000000E+00   0.0000000E+00   0.0000000E+00   0.0000000E+00
  -0.5000000E+01  -0.1666667E+01  -0.4166667E+01   0.0000000E+00   0.0000000E+00   0.0000000E+00   0.0000000E+00
  -0.5000000E+01  -0.1666667E+01  -0.3333333E+01   0.0000000E+00   0.0000000E+00   0.0000000E+00   0.0000000E+00
  -0.5000000E+01  -0.1666667E+01  -0.2500000E+01   0.0000000E+00   0.0000000E+00   0.0000000E+00   0.0000000E+00
  -0.5000000E+01  -0.1666667E+01  -0.1666667E+01   0.0000000E+00   0.0000000E+00   0.0000000E+00   0.0000000E+00
  -0.5000000E+01  -0.1666667E+01  -0.8333335E+00   0.0000000E+00   0.0000000E+00   0.0000000E+00   0.0000000E+00
  -0.5000000E+01  -0.1666667E+01   0.0000000E+00   0.0000000E+00   0.0000000E+00   0.0000000E+00   0.0000000E+00
  -0.5000000E+01  -0.8333330E+00  -0.5000000E+01   0.0000000E+00   0.0000000E+00   0.0000000E+00   0.0000000E+00
  -0.5000000E+01  -0.8333330E+00  -0.4166667E+01   0.0000000E+00   0.0000000E+00   0.0000000E+00   0.0000000E+00
  -0.5000000E+01  -0.8333330E+00  -0.3333333E+01   0.0000000E+00   0.0000000E+00   0.0000000E+00   0.0000000E+00
  -0.5000000E+01  -0.8333330E+00  -0.2500000E+01   0.0000000E+00   0.0000000E+00   0.0000000E+00   0.0000000E+00
  -0.5000000E+01  -0.8333330E+00  -0.1666667E+01   0.0000000E+00   0.0000000E+00   0.0000000E+00   0.0000000E+00
  -0.5000000E+01  -0.8333330E+00  -0.8333335E+00   0.0000000E+00   0.0000000E+00   0.0000000E+00   0.0000000E+00
  -0.5000000E+01  -0.8333330E+00   0.0000000E+00   0.0000000E+00   0.0000000E+00   0.0000000E+00   0.0000000E+00
  -0.5000000E+01   0.0000000E+00  -0.5000000E+01   0.0000000E+00   0.0000000E+00   0.0000000E+00   0.0000000E+00
  -0.5000000E+01   0.0000000E+00  -0.4166667E+01   0.0000000E+00   0.0000000E+00   0.0000000E+00   0.0000000E+00
  -0.5000000E+01   0.0000000E+00  -0.3333333E+01   0.0000000E+00   0.0000000E+00   0.0000000E+00   0.0000000E+00
  -0.5000000E+01   0.0000000E+00  -0.2500000E+01   0.0000000E+00   0.0000000E+00   0.0000000E+00   0.0000000E+00
  -0.5000000E+01   0.0000000E+00  -0.1666667E+01   0.0000000E+00   0.0000000E+00   0.0000000E+00   0.0000000E+00
  -0.5000000E+01   0.0000000E+00  -0.8333335E+00   0.0000000E+00   0.0000000E+00   0.0000000E+00   0.0000000E+00
  -0.5000000E+01   0.0000000E+00   0.0000000E+00   0.0000000E+00   0.0000000E+00   0.0000000E+00   0.0000000E+00
  -0.5000000E+01   0.0000000E+00  -0.5000000E+01   0.0000000E+00   0.0000000E+00   0.0000000E+00   0.0000000E+00
  -0.4166667E+01   0.0000000E+00  -0.5000000E+01   0.0000000E+00   0.0000000E+00   0.0000000E+00   0.0000000E+00
  -0.3333333E+01   0.0000000E+00  -0.5000000E+01   0.0000000E+00   0.0000000E+00   0.0000000E+00   0.0000000E+00
  -0.2500000E+01   0.0000000E+00  -0.5000000E+01   0.0000000E+00   0.0000000E+00   0.0000000E+00   0.0000000E+00
  -0.1666667E+01   0.0000000E+00  -0.5000000E+01   0.0000000E+00   0.0000000E+00   0.0000000E+00   0.0000000E+00
  -0.8333335E+00   0.0000000E+00  -0.5000000E+01   0.0000000E+00   0.0000000E+00   0.0000000E+00   0.0000000E+00
   0.0000000E+00   0.0000000E+00  -0.5000000E+01   0.0000000E+00   0.0000000E+00   0.0000000E+00   0.0000000E+00
   0.8333335E+00   0.0000000E+00  -0.5000000E+01   0.0000000E+00   0.0000000E+00   0.0000000E+00   0.0000000E+00
   0.1666667E+01   0.0000000E+00  -0.5000000E+01   0.0000000E+00   0.0000000E+00   0.0000000E+00   0.0000000E+00
   0.2500000E+01   0.0000000E+00  -0.5000000E+01   0.0000000E+00   0.0000000E+00   0.0000000E+00   0.0000000E+00
   0.3333333E+01   0.0000000E+00  -0.5000000E+01   0.0000000E+00   0.0000000E+00   0.0000000E+00   0.0000000E+00
   0.4166667E+01   0.0000000E+00  -0.5000000E+01   0.0000000E+00   0.0000000E+00   0.0000000E+00   0.0000000E+00
   0.5000000E+01   0.0000000E+00  -0.5000000E+01   0.0000000E+00   0.0000000E+00   0.0000000E+00   0.0000000E+00
  -0.5000000E+01  -0.8333333E+00  -0.5000000E+01   0.0000000E+00   0.0000000E+00   0.0000000E+00   0.0000000E+00
  -0.4166667E+01  -0.8333333E+00  -0.5000000E+01   0.0000000E+00   0.0000000E+00   0.0000000E+00   0.0000000E+00
  -0.3333333E+01  -0.8333333E+00  -0.5000000E+01   0.0000000E+00   0.0000000E+00   0.0000000E+00   0.0000000E+00
  -0.2500000E+01  -0.8333333E+00  -0.5000000E+01   0.0000000E+00   0.0000000E+00   0.0000000E+00   0.0000000E+00
  -0.1666667E+01  -0.8333333E+00  -0.5000000E+01   0.0000000E+00   0.0000000E+00   0.0000000E+00   0.0000000E+00
  -0.8333335E+00  -0.8333333E+00  -0.5000000E+01   0.0000000E+00   0.0000000E+00   0.0000000E+00   0.0000000E+00
   0.0000000E+00  -0.8333333E+00  -0.5000000E+01   0.0000000E+00   0.0000000E+00   0.0000000E+00   0.0000000E+00
   0.8333335E+00  -0.8333333E+00  -0.5000000E+01   0.0000000E+00   0.0000000E+00   0.0000000E+00   0.0000000E+00
   0.1666667E+01  -0.8333333E+00  -0.5000000E+01   0.0000000E+00   0.0000000E+00   0.0000000E+00   0.0000000E+00
   0.2500000E+01  -0.8333333E+00  -0.5000000E+01   0.0000000E+00   0.0000000E+00   0.0000000E+00   0.0000000E+00
   0.3333333E+01  -0.8333333E+00  -0.5000000E+01   0.0000000E+00   0.0000000E+00   0.0000000E+00   0.0000000E+00
   0.4166667E+01  -0.8333333E+00  -0.5000000E+01   0.0000000E+00   0.0000000E+00   0.0000000E+00   0.0000000E+00
   0.5000000E+01  -0.8333333E+00  -0.5000000E+01   0.0000000E+00   0.0000000E+00   0.0000000E+00   0.0000000E+00
  -0.5000000E+01  -0.1666667E+01  -0.5000000E+01   0.0000000E+00   0.0000000E+00   0.0000000E+00   0.0000000E+00
  -0.4166667E+01  -0.1666667E+01  -0.5000000E+01   0.0000000E+00   0.0000000E+00   0.0000000E+00   0.0000000E+00
  -0.3333333E+01  -0.1666667E+01  -0.5000000E+01   0.0000000E+00   0.0000000E+00   0.0000000E+00   0.0000000E+00
  -0.2500000E+01  -0.1666667E+01  -0.5000000E+01   0.0000000E+00   0.0000000E+00   0.0000000E+00   0.0000000E+00
  -0.1666667E+01  -0.1666667E+01  -0.5000000E+01   0.0000000E+00   0.0000000E+00   0.0000000E+00   0.0000000E+00
  -0.8333335E+00  -0.1666667E+01  -0.5000000E+01   0.0000000E+00   0.0000000E+00   0.0000000E+00   0.0000000E+00
   0.0000000E+00  -0.1666667E+01  -0.5000000E+01   0.0000000E+00   0.0000000E+00   0.0000000E+00   0.0000000E+00
   0.8333335E+00  -0.1666667E+01  -0.5000000E+01   0.0000000E+00   0.0000000E+00   0.0000000E+00   0.0000000E+00
   0.1666667E+01  -0.1666667E+01  -0.5000000E+01   0.0000000E+00   0.0000000E+00   0.0000000E+00   0.0000000E+00
   0.2500000E+01  -0.1666667E+01  -0.5000000E+01   0.0000000E+00   0.0000000E+00   0.0000000E+00   0.0000000E+00
   0.3333333E+01  -0.1666667E+01  -0.5000000E+01   0.0000000E+00   0.0000000E+00   0.0000000E+00   0.0000000E+00
   0.4166667E+01  -0.1666667E+01  -0.5000000E+01   0.0000000E+00   0.0000000E+00   0.0000000E+00   0.0000000E+00
   0.5000000E+01  -0.1666667E+01  -0.5000000E+01   0.0000000E+00   0.0000000E+00   0.0000000E+00   0.0000000E+00
  -0.5000000E+01  -0.2500000E+01  -0.5000000E+01   0.0000000E+00   0.0000000E+00   0.0000000E+00   0.0000000E+00
  -0.4166667E+01  -0.2500000E+01  -0.5000000E+01   0.0000000E+00   0.0000000E+00   0.0000000E+00   0.0000000E+00
  -0.3333333E+01  -0.2500000E+01  -0.5000000E+01   0.0000000E+00   0.0000000E+00   0.0000000E+00   0.0000000E+00
  -0.2500000E+01  -0.2500000E+01  -0.5000000E+01   0.0000000E+00   0.0000000E+00   0.0000000E+00   0.0000000E+00
  -0.1666667E+01  -0.2500000E+01  -0.5000000E+01   0.0000000E+00   0.0000000E+00   0.0000000E+00   0.0000000E+00
  -0.8333335E+00  -0.2500000E+01  -0.5000000E+01   0.0000000E+00   0.0000000E+00   0.0000000E+00   0.0000000E+00
   0.0000000E+00  -0.2500000E+01  -0.5000000E+01   0.0000000E+00   0.0000000E+00   0.0000000E+00   0.0000000E+00
   0.8333335E+00  -0.2500000E+01  -0.5000000E+01   0.0000000E+00   0.0000000E+00   0.0000000E+00   0.0000000E+00
   0.1666667E+01  -0.2500000E+01  -0.5000000E+01   0.0000000E+00   0.0000000E+00   0.0000000E+00   0.0000000E+00
   0.2500000E+01  -0.2500000E+01  -0.5000000E+01   0.0000000E+00   0.0000000E+00   0.0000000E+00   0.0000000E+00
   0.3333333E+01  -0.2500000E+01  -0.5000000E+01   0.0000000E+00   0.0000000E+00   0.0000000E+00   0.0000000E+00
   0.4166667E+01  -0.2500000E+01  -0.5000000E+01   0.0000000E+00   0.0000000E+00   0.0000000E+00   0.0000000E+00
   0.5000000E+01  -0.2500000E+01  -0.5000000E+01   0.0000000E+00   0.0000000E+00   0.0000000E+00   0.0000000E+00
  -0.5000000E+01  -0.3333333E+01  -0.5000000E+01   0.0000000E+00   0.0000000E+00   0.0000000E+00   0.0000000E+00
  -0.4166667E+01  -0.3333333E+01  -0.5000000E+01   0.0000000E+00   0.0000000E+00   0.0000000E+00   0.0000000E+00
  -0.3333333E+01  -0.3333333E+01  -0.5000000E+01   0.0000000E+00   0.0000000E+00   0.0000000E+00   0.0000000E+00
  -0.2500000E+01  -0.3333333E+01  -0.5000000E+01   0.0000000E+00   0.0000000E+00   0.0000000E+00   0.0000000E+00
  -0.1666667E+01  -0.3333333E+01  -0.5000000E+01   0.0000000E+00   0.0000000E+00   0.0000000E+00   0.0000000E+00
  -0.8333335E+00  -0.3333333E+01  -0.5000000E+01   0.0000000E+00   0.0000000E+00   0.0000000E+00   0.0000000E+00
   0.0000000E+00  -0.3333333E+01  -0.5000000E+01   0.0000000E+00   0.0000000E+00   0.0000000E+00   0.0000000E+00
   0.8333335E+00  -0.3333333E+01  -0.5000000E+01   0.0000000E+00   0.0000000E+00   0.0000000E+00   0.0000000E+00
   0.1666667E+01  -0.3333333E+01  -0.5000000E+01   0.0000000E+00   0.0000000E+00   0.0000000E+00   0.0000000E+00
   0.2500000E+01  -0.3333333E+01  -0.5000000E+01   0.0000000E+00   0.0000000E+00   0.0000000E+00   0.0000000E+00
   0.3333333E+01  -0.3333333E+01  -0.5000000E+01   0.0000000E+00   0.0000000E+00   0.0000000E+00   0.0000000E+00
   0.4166667E+01  -0.3333333E+01  -0.5000000E+01   0.0000000E+00   0.0000000E+00   0.0000000E+00   0.0000000E+00
   0.5000000E+01  -0.3333333E+01  -0.5000000E+01   0.0000000E+00   0.0000000E+00   0.0000000E+00   0.0000000E+00
  -0.5000000E+01  -0.4166667E+01  -0.5000000E+01   0.0000000E+00   0.0000000E+00   0.0000000E+00   0.0000000E+00
  -0.4166667E+01  -0.4166667E+01  -0.5000000E+01   0.0000000E+00   0.0000000E+00   0.0000000E+00   0.0000000E+00
  -0.3333333E+01  -0.4166667E+01  -0.5000000E+01   0.0000000E+00   0.0000000E+00   0.0000000E+00   0.0000000E+00
  -0.2500000E+01  -0.4166667E+01  -0.5000000E+01   0.0000000E+00   0.0000000E+00   0.0000000E+00   0.0000000E+00
  -0.1666667E+01  -0.4166667E+01  -0.5000000E+01   0.0000000E+00   0.0000000E+00   0.0000000E+00   0.0000000E+00
  -0.8333335E+00  -0.4166667E+01  -0.5000000E+01   0.0000000E+00   0.0000000E+00   0.0000000E+00   0.0000000E+00
   0.0000000E+00  -0.4166667E+01  -0.5000000E+01   0.0000000E+00   0.0000000E+00   0.0000000E+00   0.0000000E+00
   0.8333335E+00  -0.4166667E+01  -0.5000000E+01   0.0000000E+00   0.0000000E+00   0.0000000E+00   0.0000000E+00
   0.1666667E+01  -0.4166667E+01  -0.5000000E+01   0.0000000E+00   0.0000000E+00   0.0000000E+00   0.0000000E+00
   0.2500000E+01  -0.4166667E+01  -0.5000000E+01   0.0000000E+00   0.0000000E+00   0.0000000E+00   0.0000000E+00
   0.3333333E+01  -0.4166667E+01  -0.5000000E+01   0.0000000E+00   0.0000000E+00   0.0000000E+00   0.0000000E+00
   0.4166667E+01  -0.4166667E+01  -0.5000000E+01   0.0000000E+00   0.0000000E+00   0.0000000E+00   0.0000000E+00
   0.5000000E+01  -0.4166667E+01  -0.5000000E+01   0.0000000E+00   0.0000000E+00   0.0000000E+00   0.0000000E+00
  -0.5000000E+01  -0.5000000E+01  -0.5000000E+01   0.0000000E+00   0.0000000E+00   0.0000000E+00   0.0000000E+00
  -0.4166667E+01  -0.5000000E+01  -0.5000000E+01   0.0000000E+00   0.0000000E+00   0.0000000E+00   0.0000000E+00
  -0.3333333E+01  -0.5000000E+01  -0.5000000E+01   0.0000000E+00   0.0000000E+00   0.0000000E+00   0.0000000E+00
  -0.2500000E+01  -0.5000000E+01  -0.5000000E+01   0.0000000E+00   0.0000000E+00   0.0000000E+00   0.0000000E+00
  -0.1666667E+01  -0.5000000E+01  -0.5000000E+01   0.0000000E+00   0.0000000E+00   0.0000000E+00   0.0000000E+00
  -0.8333335E+00  -0.5000000E+01  -0.5000000E+01   0.0000000E+00   0.0000000E+00   0.0000000E+00   0.0000000E+00
   0.0000000E+00  -0.5000000E+01  -0.5000000E+01   0.0000000E+00   0.0000000E+00   0.0000000E+00   0.0000000E+00
   0.8333335E+00  -0.5000000E+01  -0.5000000E+01   0.0000000E+00   0.0000000E+00   0.0000000E+00   0.0000000E+00
   0.1666667E+01  -0.5000000E+01  -0.5000000E+01   0.0000000E+00   0.0000000E+00   0.0000000E+00   0.0000000E+00
   0.2500000E+01  -0.5000000E+01  -0.5000000E+01   0.0000000E+00   0.0000000E+00   0.0000000E+00   0.0000000E+00
   0.3333333E+01  -0.5000000E+01  -0.5000000E+01   0.0000000E+00   0.0000000E+00   0.0000000E+00   0.0000000E+00
   0.4166667E+01  -0.5000000E+01  -0.5000000E+01   0.0000000E+00   0.0000000E+00   0.0000000E+00   0.0000000E+00
   0.5000000E+01  -0.5000000E+01  -0.5000000E+01   0.0000000E+00   0.0000000E+00   0.0000000E+00   0.0000000E+00
  -0.5000000E+01  -0.5833333E+01  -0.5000000E+01   0.0000000E+00   0.0000000E+00   0.0000000E+00   0.0000000E+00
  -0.4166667E+01  -0.5833333E+01  -0.5000000E+01   0.0000000E+00   0.0000000E+00   0.0000000E+00   0.0000000E+00
  -0.3333333E+01  -0.5833333E+01  -0.5000000E+01   0.0000000E+00   0.0000000E+00   0.0000000E+00   0.0000000E+00
  -0.2500000E+01  -0.5833333E+01  -0.5000000E+01   0.0000000E+00   0.0000000E+00   0.0000000E+00   0.0000000E+00
  -0.1666667E+01  -0.5833333E+01  -0.5000000E+01   0.0000000E+00   0.0000000E+00   0.0000000E+00   0.0000000E+00
  -0.8333335E+00  -0.5833333E+01  -0.5000000E+01   0.0000000E+00   0.0000000E+00   0.0000000E+00   0.0000000E+00
   0.0000000E+00  -0.5833333E+01  -0.5000000E+01   0.0000000E+00   0.0000000E+00   0.0000000E+00   0.0000000E+00
   0.8333335E+00  -0.5833333E+01  -0.5000000E+01   0.0000000E+00   0.0000000E+00   0.0000000E+00   0.0000000E+00
   0.1666667E+01  -0.5833333E+01  -0.5000000E+01   0.0000000E+00   0.0000000E+00   0.0000000E+00   0.0000000E+00
   0.2500000E+01  -0.5833333E+01  -0.5000000E+01   0.0000000E+00   0.0000000E+00   0.0000000E+00   0.0000000E+00
   0.3333333E+01  -0.5833333E+01  -0.5000000E+01   0.0000000E+00   0.0000000E+00   0.0000000E+00   0.0000000E+00
   0.4166667E+01  -0.5833333E+01  -0.5000000E+01   0.0000000E+00   0.0000000E+00   0.0000000E+00   0.0000000E+00
   0.5000000E+01  -0.5833333E+01  -0.5000000E+01   0.0000000E+00   0.0000000E+00   0.0000000E+00   0.0000000E+00
  -0.5000000E+01  -0.6666667E+01  -0.5000000E+01   0.0000000E+00   0.0000000E+00   0.0000000E+00   0.0000000E+00
  -0.4166667E+01  -0.6666667E+01  -0.5000000E+01   0.0000000E+00   0.0000000E+00   0.0000000E+00   0.0000000E+00
  -0.3333333E+01  -0.6666667E+01  -0.5000000E+01   0.0000000E+00   0.0000000E+00   0.0000000E+00   0.0000000E+00
  -0.2500000E+01  -0.6666667E+01  -0.5000000E+01   0.0000000E+00   0.0000000E+00   0.0000000E+00   0.0000000E+00
  -0.1666667E+01  -0.6666667E+01  -0.5000000E+01   0.0000000E+00   0.0000000E+00   0.0000000E+00   0.0000000E+00
  -0.8333335E+00  -0.6666667E+01  -0.5000000E+01   0.0000000E+00   0.0000000E+00   0.0000000E+00   0.0000000E+00
   0.0000000E+00  -0.6666667E+01  -0.5000000E+01   0.0000000E+00   0.0000000E+00   0.0000000E+00   0.0000000E+00
   0.8333335E+00  -0.6666667E+01  -0.5000000E+01   0.0000000E+00   0.0000000E+00   0.0000000E+00   0.0000000E+00
   0.1666667E+01  -0.6666667E+01  -0.5000000E+01   0.0000000E+00   0.0000000E+00   0.0000000E+00   0.0000000E+00
   0.2500000E+01  -0.6666667E+01  -0.5000000E+01   0.0000000E+00   0.0000000E+00   0.0000000E+00   0.0000000E+00
   0.3333333E+01  -0.6666667E+01  -0.5000000E+01   0.0000000E+00   0.0000000E+00   0.0000000E+00   0.0000000E+00
   0.4166667E+01  -0.6666667E+01  -0.5000000E+01   0.0000000E+00   0.0000000E+00   0.0000000E+00   0.0000000E+00
   0.5000000E+01  -0.6666667E+01  -0.5000000E+01   0.0000000E+00   0.0000000E+00   0.0000000E+00   0.0000000E+00
  -0.5000000E+01  -0.7500000E+01  -0.5000000E+01   0.0000000E+00   0.0000000E+00   0.0000000E+00   0.0000000E+00
  -0.4166667E+01  -0.7500000E+01  -0.5000000E+01   0.0000000E+00   0.0000000E+00   0.0000000E+00   0.0000000E+00
  -0.3333333E+01  -0.7500000E+01  -0.5000000E+01   0.0000000E+00   0.0000000E+00   0.0000000E+00   0.0000000E+00
  -0.2500000E+01  -0.7500000E+01  -0.5000000E+01   0.0000000E+00   0.0000000E+00   0.0000000E+00   0.0000000E+00
  -0.1666667E+01  -0.7500000E+01  -0.5000000E+01   0.0000000E+00   0.0000000E+00   0.0000000E+00   0.0000000E+00
  -0.8333335E+00  -0.7500000E+01  -0.5000000E+01   0.0000000E+00   0.0000000E+00   0.0000000E+00   0.0000000E+00
   0.0000000E+00  -0.7500000E+01  -0.5000000E+01   0.0000000E+00   0.0000000E+00   0.0000000E+00   0.0000000E+00
   0.8333335E+00  -0.7500000E+01  -0.5000000E+01   0.0000000E+00   0.0000000E+00   0.0000000E+00   0.0000000E+00
   0.1666667E+01  -0.7500000E+01  -0.5000000E+01   0.0000000E+00   0.0000000E+00   0.0000000E+00   0.0000000E+00
   0.2500000E+01  -0.7500000E+01  -0.5000000E+01   0.0000000E+00   0.0000000E+00   0.0000000E+00   0.0000000E+00
   0.3333333E+01  -0.7500000E+01  -0.5000000E+01   0.0000000E+00   0.0000000E+00   0.0000000E+00   0.0000000E+00
   0.4166667E+01  -0.7500000E+01  -0.5000000E+01   0.0000000E+00   0.0000000E+00   0.0000000E+00   0.0000000E+00
   0.5000000E+01  -0.7500000E+01  -0.5000000E+01   0.0000000E+00   0.0000000E+00   0.0000000E+00   0.0000000E+00
  -0.5000000E+01  -0.8333333E+01  -0.5000000E+01   0.0000000E+00   0.0000000E+00   0.0000000E+00   0.0000000E+00
  -0.4166667E+01  -0.8333333E+01  -0.5000000E+01   0.0000000E+00   0.0000000E+00   0.0000000E+00   0.0000000E+00
  -0.3333333E+01  -0.8333333E+01  -0.5000000E+01   0.0000000E+00   0.0000000E+00   0.0000000E+00   0.0000000E+00
  -0.2500000E+01  -0.8333333E+01  -0.5000000E+01   0.0000000E+00   0.0000000E+00   0.0000000E+00   0.0000000E+00
  -0.1666667E+01  -0.8333333E+01  -0.5000000E+01   0.0000000E+00   0.0000000E+00   0.0000000E+00   0.0000000E+00
  -0.8333335E+00  -0.8333333E+01  -0.5000000E+01   0.0000000E+00   0.0000000E+00   0.0000000E+00   0.0000000E+00
   0.0000000E+00  -0.8333333E+01  -0.5000000E+01   0.0000000E+00   0.0000000E+00   0.0000000E+00   0.0000000E+00
   0.8333335E+00  -0.8333333E+01  -0.5000000E+01   0.0000000E+00   0.0000000E+00   0.0000000E+00   0.0000000E+00
   0.1666667E+01  -0.8333333E+01  -0.5000000E+01   0.0000000E+00   0.0000000E+00   0.0000000E+00   0.0000000E+00
   0.2500000E+01  -0.8333333E+01  -0.5000000E+01   0.0000000E+00   0.0000000E+00   0.0000000E+00   0.0000000E+00
   0.3333333E+01  -0.8333333E+01  -0.5000000E+01   0.0000000E+00   0.0000000E+00   0.0000000E+00   0.0000000E+00
   0.4166667E+01  -0.8333333E+01  -0.5000000E+01   0.0000000E+00   0.0000000E+00   0.0000000E+00   0.0000000E+00
   0.5000000E+01  -0.8333333E+01  -0.5000000E+01   0.0000000E+00   0.0000000E+00   0.0000000E+00   0.0000000E+00
  -0.5000000E+01  -0.9166667E+01  -0.5000000E+01   0.0000000E+00   0.0000000E+00   0.0000000E+00   0.0000000E+00
  -0.4166667E+01  -0.9166667E+01  -0.5000000E+01   0.0000000E+00   0.0000000E+00   0.0000000E+00   0.0000000E+00
  -0.3333333E+01  -0.9166667E+01  -0.5000000E+01   0.0000000E+00   0.0000000E+00   0.0000000E+00   0.0000000E+00
  -0.2500000E+01  -0.9166667E+01  -0.5000000E+01   0.0000000E+00   0.0000000E+00   0.0000000E+00   0.0000000E+00
  -0.1666667E+01  -0.9166667E+01  -0.5000000E+01   0.0000000E+00   0.0000000E+00   0.0000000E+00   0.0000000E+00
  -0.8333335E+00  -0.9166667E+01  -0.5000000E+01   0.0000000E+00   0.0000000E+00   0.0000000E+00   0.0000000E+00
   0.0000000E+00  -0.9166667E+01  -0.5000000E+01   0.0000000E+00   0.0000000E+00   0.0000000E+00   0.0000000E+00
   0.8333335E+00  -0.9166667E+01  -0.5000000E+01   0.0000000E+00   0.0000000E+00   0.0000000E+00   0.0000000E+00
   0.1666667E+01  -0.9166667E+01  -0.5000000E+01   0.0000000E+00   0.0000000E+00   0.0000000E+00   0.0000000E+00
   0.2500000E+01  -0.9166667E+01  -0.5000000E+01   0.0000000E+00   0.0000000E+00   0.0000000E+00   0.0000000E+00
   0.3333333E+01  -0.9166667E+01  -0.5000000E+01   0.0000000E+00   0.0000000E+00   0.0000000E+00   0.0000000E+00
   0.4166667E+01  -0.9166667E+01  -0.5000000E+01   0.0000000E+00   0.0000000E+00   0.0000000E+00   0.0000000E+00
   0.5000000E+01  -0.9166667E+01  -0.5000000E+01   0.0000000E+00   0.0000000E+00   0.0000000E+00   0.0000000E+00
  -0.5000000E+01  -0.1000000E+02  -0.5000000E+01   0.0000000E+00   0.0000000E+00   0.0000000E+00   0.0000000E+00
  -0.4166667E+01  -0.1000000E+02  -0.5000000E+01   0.0000000E+00   0.0000000E+00   0.0000000E+00   0.0000000E+00
  -0.3333333E+01  -0.1000000E+02  -0.5000000E+01   0.0000000E+00   0.0000000E+00   0.0000000E+00   0.0000000E+00
  -0.2500000E+01  -0.1000000E+02  -0.5000000E+01   0.0000000E+00   0.0000000E+00   0.0000000E+00   0.0000000E+00
  -0.1666667E+01  -0.1000000E+02  -0.5000000E+01   0.0000000E+00   0.0000000E+00   0.0000000E+00   0.0000000E+00
  -0.8333335E+00  -0.1000000E+02  -0.5000000E+01   0.0000000E+00   0.0000000E+00   0.0000000E+00   0.0000000E+00
   0.0000000E+00  -0.1000000E+02  -0.5000000E+01   0.0000000E+00   0.0000000E+00   0.0000000E+00   0.0000000E+00
   0.8333335E+00  -0.1000000E+02  -0.5000000E+01   0.0000000E+00   0.0000000E+00   0.0000000E+00   0.0000000E+00
   0.1666667E+01  -0.1000000E+02  -0.5000000E+01   0.0000000E+00   0.0000000E+00   0.0000000E+00   0.0000000E+00
   0.2500000E+01  -0.1000000E+02  -0.5000000E+01   0.0000000E+00   0.0000000E+00   0.0000000E+00   0.0000000E+00
   0.3333333E+01  -0.1000000E+02  -0.5000000E+01   0.0000000E+00   0.0000000E+00   0.0000000E+00   0.0000000E+00
   0.4166667E+01  -0.1000000E+02  -0.5000000E+01   0.0000000E+00   0.0000000E+00   0.0000000E+00   0.0000000E+00
   0.5000000E+01  -0.1000000E+02  -0.5000000E+01   0.0000000E+00   0.0000000E+00   0.0000000E+00   0.0000000E+00
   0.5000000E+01   0.0000000E+00   0.0000000E+00   0.0000000E+00   0.0000000E+00   0.0000000E+00   0.0000000E+00
   0.5000000E+01  -0.8333333E+00   0.0000000E+00   0.0000000E+00   0.0000000E+00   0.0000000E+00   0.0000000E+00
   0.5000000E+01  -0.1666667E+01   0.0000000E+00   0.0000000E+00   0.0000000E+00   0.0000000E+00   0.0000000E+00
   0.5000000E+01  -0.2500000E+01   0.0000000E+00   0.0000000E+00   0.0000000E+00   0.0000000E+00   0.0000000E+00