VARIABLES="w (rad/s)"  
"abs(F   1   1)" "angle(F   1   1)"
"abs(F   1   2)" "angle(F   1   2)"
"abs(F   1   3)" "angle(F   1   3)"
"abs(F   1   4)" "angle(F   1   4)"
"abs(F   1   5)" "angle(F   1   5)"
"abs(F   1   6)" "angle(F   1   6)"
"abs(F   2   1)" "angle(F   2   1)"
"abs(F   2   2)" "angle(F   2   2)"
"abs(F   2   3)" "angle(F   2   3)"
"abs(F   2   4)" "angle(F   2   4)"
"abs(F   2   5)" "angle(F   2   5)"
"abs(F   2   6)" "angle(F   2   6)"
"abs(F   3   1)" "angle(F   3   1)"
"abs(F   3   2)" "angle(F   3   2)"
"abs(F   3   3)" "angle(F   3   3)"
"abs(F   3   4)" "angle(F   3   4)"
"abs(F   3   5)" "angle(F   3   5)"
"abs(F   3   6)" "angle(F   3   6)"
Zone t="Diffraction force - beta =   0.000 deg",I=    20,F=POINT
  0.9904544E+00  0.5658163E+03 -0.1570529E+01  0.2994309E-04 -0.6211554E+00  0.3011310E+03 -0.2988317E+01  0.2056221E-04 -0.2687990E+01  0.3554527E+02 -0.1570957E+01  0.7741362E-13 -0.3141593E+01  0.4564697E+02 -0.1467945E+01  0.2214324E-05  0.1686865E+01  0.6750870E+02 -0.2902033E+01  0.2186162E-04  0.2572608E+01  0.1044363E+03  0.8241510E-01  0.5760316E-05  0.7446229E+00  0.2186036E+02 -0.1664103E+01  0.3870573E-05  0.2142617E+01  0.7021337E+02 -0.2865465E+01  0.1283375E-04 -0.7673055E-01  0.1134640E+03 -0.2785723E+01  0.2970604E-04  0.2732918E-01
  0.1171454E+01  0.7830637E+03 -0.1569548E+01  0.1632450E-03  0.4540100E+00  0.4045520E+03 -0.2941454E+01  0.1548158E-04 -0.2038784E+01  0.5077159E+02 -0.1569949E+01  0.2423893E-12 -0.2782996E+00  0.6363104E+02 -0.1409695E+01  0.8838049E-05  0.1631498E+01  0.9306788E+02 -0.2789666E+01  0.5631800E-04 -0.1243851E+01  0.1427313E+03  0.1931213E+00  0.4065269E-04  0.5256172E+00  0.3035753E+02 -0.1719660E+01  0.1638041E-04  0.3092315E+01  0.9515197E+02 -0.2811326E+01  0.1176577E-03  0.3245113E+00  0.1551735E+03 -0.2734331E+01  0.3762463E-04 -0.4954715E-01
  0.1352454E+01  0.1030863E+04 -0.1567658E+01  0.5497925E-04  0.1674213E+01  0.5104457E+03 -0.2893346E+01  0.2082302E-04  0.1965121E+01  0.6929046E+02 -0.1568004E+01  0.1491836E-12 -0.2880990E+01  0.8451131E+02 -0.1341653E+01  0.2650320E-04 -0.2514572E+01  0.1210675E+03 -0.2668166E+01  0.1205864E-03 -0.2612335E+00  0.1840130E+03  0.3117993E+00  0.1134007E-03 -0.1528843E+01  0.3994484E+02 -0.1784158E+01  0.1384731E-04 -0.2227113E+01  0.1193210E+03 -0.2754407E+01  0.1116314E-03  0.4879366E+00  0.1967293E+03 -0.2680176E+01  0.5391103E-05 -0.2938332E+01
  0.1533453E+01  0.1306500E+04 -0.1564569E+01  0.3997304E-03  0.2968367E+01  0.6122365E+03 -0.2845942E+01  0.1057245E-03 -0.2701107E+01  0.9142538E+02 -0.1564814E+01  0.2288127E-12 -0.1570796E+01  0.1083155E+03 -0.1263466E+01  0.1481195E-04  0.2273999E+01  0.1505128E+03 -0.2539176E+01  0.7855512E-04 -0.4158634E+00  0.2266817E+03  0.4366337E+00  0.4528085E-04 -0.1578480E+00  0.5029782E+02 -0.1859680E+01  0.2512984E-04  0.3015242E+01  0.1389345E+03 -0.2697264E+01  0.9626411E-04  0.8284746E+00  0.2321994E+03 -0.2626021E+01  0.1827473E-04 -0.3041395E+01
  0.1714453E+01  0.1606472E+04 -0.1560194E+01  0.1011310E-03 -0.2772478E+00  0.7036981E+03 -0.2801222E+01  0.6303565E-04  0.2963937E+01  0.1174773E+03 -0.1560287E+01  0.2723960E-12  0.1107149E+01  0.1350878E+03 -0.1174689E+01  0.3883552E-04  0.1052107E+01  0.1803700E+03 -0.2403984E+01  0.6557593E-04 -0.1321418E+01  0.2691487E+03  0.5661177E+00  0.1037930E-03 -0.1316385E+01  0.6097269E+02 -0.1950675E+01  0.3329738E-04  0.1577342E+01  0.1494520E+03 -0.2643730E+01  0.1731994E-04  0.1831405E+01  0.2542959E+03 -0.2576036E+01  0.2954380E-04 -0.1701962E+01
  0.1895452E+01  0.1926659E+04 -0.1554781E+01  0.1977337E-03  0.1749951E+01  0.7796015E+03 -0.2761293E+01  0.7047345E-04 -0.3399240E+00  0.1477320E+03 -0.1554687E+01  0.5312610E-12  0.2609869E+01  0.1648698E+03 -0.1074835E+01  0.4767894E-04 -0.9993030E+00  0.2096563E+03 -0.2263558E+01  0.1392522E-03  0.2962360E+00  0.3099823E+03  0.6990328E+00  0.1802056E-03  0.1614931E+01  0.7156799E+02 -0.2064544E+01  0.3271525E-05 -0.6709422E-01  0.1460771E+03 -0.2601101E+01  0.3136334E-04 -0.8917833E+00  0.2551482E+03 -0.2537951E+01  0.1890780E-04  0.1389807E+01
  0.2076452E+01  0.2262945E+04 -0.1548975E+01  0.5331466E-03 -0.2598801E+01  0.8363656E+03 -0.2728566E+01  0.1334147E-04  0.6506790E+00  0.1824873E+03 -0.1548698E+01  0.2538388E-12  0.9505468E+00  0.1977018E+03 -0.9633731E+00  0.6911007E-04 -0.1931430E+01  0.2374646E+03 -0.2118828E+01  0.3618350E-03  0.1784753E+01  0.3479676E+03  0.8341095E+00  0.3385347E-03  0.1699935E+01  0.8214107E+02 -0.2210469E+01  0.3542240E-05  0.6376117E+00  0.1246528E+03 -0.2587515E+01  0.7828590E-05 -0.7764339E-01  0.2277896E+03 -0.2529581E+01  0.8331266E-06 -0.2761086E+01
  0.2257452E+01  0.2613126E+04 -0.1543634E+01  0.2453126E-03 -0.2161462E+01  0.8726547E+03 -0.2705924E+01  0.5271082E-04  0.1445160E+01  0.2222030E+03 -0.1543202E+01  0.4494108E-12  0.6078020E+00  0.2336986E+03 -0.8396714E+00  0.6489114E-04 -0.1572334E+01  0.2628436E+03 -0.1970908E+01  0.1833067E-03 -0.3949640E+00  0.3819621E+03  0.9695604E+00  0.7237849E-04 -0.1332806E+01  0.9383504E+02 -0.2394289E+01  0.7187646E-06  0.1095621E+01  0.8335386E+02 -0.2672295E+01  0.2414364E-04 -0.3028190E+01  0.1690217E+03 -0.2607724E+01  0.2953737E-04 -0.1510828E+01
  0.2438451E+01  0.2979758E+04 -0.1539286E+01  0.2947701E-03 -0.1835257E-01  0.8901775E+03 -0.2696810E+01  0.1556600E-04 -0.1714597E+01  0.2678022E+03 -0.1538738E+01  0.1259017E-11  0.1842480E+01  0.2730274E+03 -0.7027866E+00  0.3002151E-04  0.1662130E+01  0.2849731E+03 -0.1821950E+01  0.3853544E-03 -0.1536801E+01  0.4113140E+03  0.1102344E+01  0.2038002E-03 -0.2215795E+01  0.1091321E+03 -0.2608732E+01  0.2248506E-04 -0.6427695E+00  0.3479124E+02  0.2813762E+01  0.2111796E-04  0.2766793E+01  0.9189097E+02 -0.3081254E+01  0.1428095E-03  0.3131224E+01
  0.2619451E+01  0.3372789E+04 -0.1535126E+01  0.7278789E-03  0.1023463E+01  0.8940567E+03 -0.2704263E+01  0.1619971E-03 -0.2343372E+01  0.3209832E+03 -0.1534480E+01  0.6298007E-12  0.1901892E+01  0.3158256E+03 -0.5510721E+00  0.1185873E-03 -0.1534798E+01  0.3035716E+03 -0.1675726E+01  0.7002409E-04 -0.1782304E+01  0.4367538E+03  0.1227942E+01  0.5160071E-03 -0.1205173E+01  0.1307719E+03 -0.2830343E+01  0.8188883E-05  0.7642678E+00  0.8147511E+02  0.1385666E+01  0.4982448E-04 -0.1254937E+01  0.1133104E+03  0.1839784E+01  0.7790849E-04 -0.3098116E+01
  0.2800450E+01  0.3810923E+04 -0.1527588E+01  0.3963523E-03 -0.7589121E-01  0.8927380E+03 -0.2728501E+01  0.2778354E-04  0.9326069E+00  0.3846906E+03 -0.1526764E+01  0.4296626E-12 -0.2307054E+01  0.3619872E+03 -0.3822974E+00  0.5999179E-04 -0.1812475E+00  0.3195009E+03 -0.1537014E+01  0.3112292E-04 -0.1699746E+01  0.4615028E+03  0.1342045E+01  0.3123173E-03 -0.2121436E+01  0.1597400E+03 -0.3036052E+01  0.5035034E-04  0.6018426E-01  0.1774884E+03  0.1176912E+01  0.1462335E-03 -0.2223568E+01  0.2535517E+03  0.1420873E+01  0.5373231E-04 -0.2242635E+00
  0.2981450E+01  0.4317516E+04 -0.1508880E+01  0.1160507E-03  0.1792677E+01  0.8969470E+03 -0.2763864E+01  0.2607835E-03  0.1436669E+01  0.4628318E+03 -0.1507631E+01  0.1231618E-11 -0.1501940E+01  0.4107640E+03 -0.1938317E+00  0.2007495E-03 -0.1092400E+01  0.3357328E+03 -0.1409305E+01  0.1272196E-03  0.1956091E+01  0.4925263E+03  0.1445081E+01  0.3410922E-03 -0.2134918E+01  0.1949094E+03  0.3059667E+01  0.5458129E-04 -0.2092887E+01  0.2869328E+03  0.1103621E+01  0.2910827E-03 -0.1892402E+01  0.4261543E+03  0.1290469E+01  0.1845979E-03  0.2931326E+01
  0.3162450E+01  0.4902271E+04 -0.1466570E+01  0.4428480E-03 -0.7805449E+00  0.9114626E+03 -0.2795769E+01  0.1795229E-03 -0.2234300E+01  0.5585312E+03 -0.1464473E+01  0.4144889E-12  0.5729662E+00  0.4601077E+03  0.1680367E-01  0.1077955E-03 -0.8553575E+00  0.3580110E+03 -0.1289260E+01  0.4367314E-03 -0.1810076E+01  0.5401345E+03  0.1549453E+01  0.3431770E-03 -0.1672863E+01  0.2364310E+03  0.2876170E+01  0.9645233E-04  0.2123910E+01  0.4091476E+03  0.1047422E+01  0.2556513E-03 -0.6962901E+00  0.6237322E+03  0.1209092E+01  0.1577852E-03 -0.1862332E+01
  0.3343449E+01  0.5522146E+04 -0.1386537E+01  0.6670073E-03 -0.2306924E+01  0.9320745E+03 -0.2808768E+01  0.1544306E-03 -0.2808847E+01  0.6688409E+03 -0.1383071E+01  0.8091218E-12  0.2439336E+01  0.5055316E+03  0.2506285E+00  0.1533880E-03 -0.2754849E+01  0.3930408E+03 -0.1159602E+01  0.3652739E-03  0.2469198E+01  0.6124890E+03  0.1681705E+01  0.2847502E-03  0.3011313E+01  0.2906799E+03  0.2695117E+01  0.2849582E-03 -0.1414738E+01  0.5497831E+03  0.1005679E+01  0.3964719E-03 -0.3160432E+00  0.8563823E+03  0.1154735E+01  0.1454527E-03 -0.2569741E+01
  0.3524449E+01  0.6033701E+04 -0.1261697E+01  0.3315670E-03 -0.2913563E+01  0.9440869E+03 -0.2795252E+01  0.6643894E-04 -0.2601942E+01  0.7766122E+03 -0.1256396E+01  0.1402895E-11 -0.1544017E+01  0.5394922E+03  0.5027249E+00  0.1080676E-04  0.1526626E+01  0.4437872E+03 -0.9911268E+00  0.4307106E-03 -0.4766706E+00  0.7067730E+03  0.1870709E+01  0.2354632E-03  0.2940392E+01  0.3656273E+03  0.2551602E+01  0.2711499E-03 -0.2161301E+01  0.7023863E+03  0.9974076E+00  0.2804093E-03 -0.2762917E+01  0.1114647E+04  0.1143209E+01  0.2002338E-03 -0.8321521E+00
  0.3705448E+01  0.6225176E+04 -0.1103156E+01  0.7058063E-03 -0.1928590E+01  0.9343094E+03 -0.2759840E+01  0.1980401E-03 -0.7662676E+00  0.8507806E+03 -0.1095717E+01  0.4628296E-12  0.4095603E+00  0.5556522E+03  0.7563592E+00  0.1255270E-03  0.3745066E+00  0.5017037E+03 -0.7631745E+00  0.3266460E-03  0.2629772E+01  0.8007739E+03  0.2124819E+01  0.4780362E-03  0.6385982E-01  0.4520367E+03  0.2479539E+01  0.5298548E-04 -0.2172385E+01  0.8335931E+03  0.1020396E+01  0.7140221E-03 -0.2211359E+01  0.1340899E+04  0.1170265E+01  0.3440727E-03 -0.2942411E+01
  0.3886448E+01  0.5983147E+04 -0.9384539E+00  0.1925656E-02  0.1762236E+01  0.8967636E+03 -0.2712225E+01  0.6260908E-03  0.3129562E+01  0.8672980E+03 -0.9287477E+00  0.5011530E-12  0.1443024E+01  0.5588842E+03  0.9890625E+00  0.3155519E-03 -0.3100681E+01  0.5503641E+03 -0.4840424E+00  0.7105979E-03  0.2960995E+01  0.8657667E+03  0.2423512E+01  0.4915957E-03 -0.2389521E+01  0.5207659E+03  0.2463788E+01  0.2064551E-03  0.1543760E+01  0.9064979E+03  0.1043419E+01  0.4899455E-03  0.1716657E+01  0.1467220E+04  0.1201270E+01  0.3897968E-03 -0.2262914E+01
  0.4067448E+01  0.5387348E+04 -0.7925094E+00  0.4468801E-03  0.2922734E+01  0.8353064E+03 -0.2660088E+01  0.1335858E-03 -0.2808729E+01  0.8271281E+03 -0.7804549E+00  0.1182074E-11  0.2420597E+01  0.5655660E+03  0.1194681E+01  0.3029930E-03 -0.3899161E-02  0.5797536E+03 -0.1777050E+00  0.3410355E-03 -0.2720890E+00  0.8901667E+03  0.2737687E+01  0.1567447E-02  0.2276655E+00  0.5467509E+03  0.2466922E+01  0.1997780E-03  0.1427375E+01  0.9160438E+03  0.1036794E+01  0.7416066E-03  0.2373186E+01  0.1479135E+04  0.1201971E+01  0.1258573E-03 -0.2844441E+01
  0.4248447E+01  0.4583699E+04 -0.6773064E+00  0.5265463E-03 -0.9915405E+00  0.7552853E+03 -0.2606355E+01  0.2756089E-03  0.1612045E+01  0.7442059E+03 -0.6627470E+00  0.7558923E-12 -0.2981163E+01  0.5902902E+03  0.1392642E+01  0.3420399E-03 -0.3004651E+01  0.5903741E+03  0.1397517E+00  0.5882330E-03  0.3071214E+00  0.8807916E+03  0.3050267E+01  0.6448264E-03  0.6865550E+00  0.5197483E+03  0.2464807E+01  0.3297035E-03 -0.1604985E+01  0.8795246E+03  0.9945061E+00  0.3976262E-03  0.1964549E+00  0.1405503E+04  0.1160577E+01  0.2093039E-03 -0.5992363E-01
  0.4429447E+01  0.3672574E+04 -0.6043844E+00  0.4641072E-03  0.1568933E+01  0.6613456E+03 -0.2552860E+01  0.2804520E-03 -0.6434121E+00  0.6292009E+03 -0.5868242E+00  0.1709383E-11 -0.3141593E+01  0.6370739E+03  0.1612502E+01  0.2946185E-03 -0.1344527E+01  0.5862823E+03  0.4635524E+00  0.3568179E-03  0.1790606E+01  0.8491716E+03 -0.2927225E+01  0.7426891E-04  0.1147699E+01  0.4361212E+03  0.2445974E+01  0.1076979E-03  0.1048052E+01  0.8077407E+03  0.9293336E+00  0.6788658E-03  0.2658741E+01  0.1271525E+04  0.1083243E+01  0.2283839E-03  0.2138173E+01
