VARIABLES="w (rad/s)"  
"abs(F   1   1)" "angle(F   1   1)"
"abs(F   1   2)" "angle(F   1   2)"
"abs(F   1   3)" "angle(F   1   3)"
"abs(F   1   4)" "angle(F   1   4)"
"abs(F   1   5)" "angle(F   1   5)"
"abs(F   1   6)" "angle(F   1   6)"
"abs(F   2   1)" "angle(F   2   1)"
"abs(F   2   2)" "angle(F   2   2)"
"abs(F   2   3)" "angle(F   2   3)"
"abs(F   2   4)" "angle(F   2   4)"
"abs(F   2   5)" "angle(F   2   5)"
"abs(F   2   6)" "angle(F   2   6)"
"abs(F   3   1)" "angle(F   3   1)"
"abs(F   3   2)" "angle(F   3   2)"
"abs(F   3   3)" "angle(F   3   3)"
"abs(F   3   4)" "angle(F   3   4)"
"abs(F   3   5)" "angle(F   3   5)"
"abs(F   3   6)" "angle(F   3   6)"
Zone t="Excitation force - beta =   0.000 deg",I=    20,F=POINT
  0.9904544E+00  0.1316975E+04 -0.1570681E+01  0.7544864E-02 -0.3139323E+01  0.6785807E+04 -0.6775312E-02  0.1159525E-02 -0.7928044E-02  0.8632014E+02 -0.1570862E+01  0.5323506E-12  0.3114895E+01  0.1407489E+03 -0.1431887E+01  0.6492658E-03 -0.4361363E+00  0.2636470E+04  0.1540750E+00  0.3998660E-02  0.9047309E-01  0.4119518E+04 -0.2974432E+01  0.4845782E-03 -0.3015115E+01  0.7795171E+02 -0.1709376E+01  0.1329284E-02  0.2020564E+00  0.2678846E+04 -0.1671891E+00  0.1074835E-03  0.2136990E+01  0.4185813E+04 -0.1763248E+00  0.1713580E-02 -0.7410078E-01
  0.1171454E+01  0.1813199E+04 -0.1570257E+01  0.9243201E-02  0.7677938E-02  0.6408279E+04 -0.1255083E-01  0.2644504E-02 -0.3136660E+01  0.1225727E+03 -0.1570445E+01  0.3639680E-11  0.3077852E+01  0.1957425E+03 -0.1370936E+01  0.3083083E-03  0.1453515E+01  0.2574496E+04  0.2137065E+00  0.5180815E-02  0.2738204E+00  0.4023274E+04 -0.2909255E+01  0.1952134E-02  0.2771173E+01  0.1084922E+03 -0.1769837E+01  0.8025584E-04  0.1497612E+01  0.2639542E+04 -0.2373212E+00  0.4880925E-02 -0.3031888E+01  0.4125532E+04 -0.2502065E+00  0.4213656E-03 -0.2532375E+01
  0.1352454E+01  0.2372521E+04 -0.1569432E+01  0.1188233E-01  0.4372933E-02  0.5998039E+04 -0.2091151E-01  0.2799799E-02  0.6989479E-02  0.1661305E+03 -0.1569631E+01  0.1683082E-11 -0.9899022E-01  0.2591676E+03 -0.1299783E+01  0.1111765E-02  0.2708468E+01  0.2505027E+04  0.2825008E+00  0.2048199E-02  0.3096748E+01  0.3915429E+04 -0.2833749E+01  0.1880175E-02  0.4862548E+00  0.1435717E+03 -0.1840402E+01  0.6837378E-03 -0.2756681E+01  0.2602638E+04 -0.3200333E+00  0.3636859E-02 -0.1507680E-02  0.4069660E+04 -0.3372920E+00  0.1352631E-02  0.2530977E+01
  0.1533453E+01  0.2986356E+04 -0.1568072E+01  0.1392803E-01  0.3136506E+01  0.5567697E+04 -0.3204438E-01  0.2069998E-03 -0.2926500E+01  0.2174809E+03 -0.1568281E+01  0.8185660E-11 -0.3134473E+01  0.3307514E+03 -0.1218325E+01  0.1319529E-02  0.2773009E+01  0.2429464E+04  0.3604288E+00  0.1438906E-02 -0.1842752E+00  0.3798112E+04 -0.2747827E+01  0.2363249E-02  0.1440223E+00  0.1827567E+03 -0.1921710E+01  0.1137039E-02  0.2346306E+00  0.2572201E+04 -0.4138879E+00  0.1850532E-02 -0.2998444E+01  0.4024574E+04 -0.4360633E+00  0.1787559E-02 -0.3205176E+00
  0.1714453E+01  0.3644934E+04 -0.1566123E+01  0.7285279E-02 -0.3137849E+01  0.5128959E+04 -0.4581868E-01  0.1188416E-02  0.3132879E+01  0.2770685E+03 -0.1566341E+01  0.3077945E-11 -0.1318408E-01  0.4102016E+03 -0.1126427E+01  0.2123027E-02  0.3012559E+01  0.2349150E+04  0.4475898E+00  0.1396455E-02  0.2738947E+01  0.3673401E+04 -0.2651259E+01  0.2338197E-02 -0.2477916E+00  0.2254948E+03 -0.2015026E+01  0.3154902E-03  0.3104342E+01  0.2550228E+04 -0.5162632E+00  0.3639525E-03  0.2825646E+01  0.3993084E+04 -0.5437877E+00  0.1949866E-03  0.2635230E+01
  0.1895452E+01  0.4337633E+04 -0.1563683E+01  0.6311328E-02  0.3110523E+01  0.4691495E+04 -0.6172247E-01  0.2406650E-03 -0.3045741E+01  0.3452844E+03 -0.1563905E+01  0.2616345E-11 -0.6003024E-01  0.4971905E+03 -0.1023936E+01  0.1653382E-02 -0.2187670E+01  0.2265266E+04  0.5442004E+00  0.1320146E-02 -0.2260255E+01  0.3543110E+04 -0.2543684E+01  0.1847179E-02  0.1032403E+01  0.2712846E+03 -0.2122231E+01  0.1483162E-03  0.1062730E+00  0.2534738E+04 -0.6237885E+00  0.5686352E-03 -0.2847328E+01  0.3971205E+04 -0.6570398E+00  0.4186689E-03 -0.2641199E+01
  0.2076452E+01  0.5053749E+04 -0.1561026E+01  0.2808582E-02 -0.9938752E-01  0.4262286E+04 -0.7884297E-01  0.7079488E-03  0.1161651E-01  0.4224803E+03 -0.1561251E+01  0.4630734E-11  0.3103116E+01  0.5913580E+03 -0.9106722E+00  0.9404075E-03 -0.1308854E+01  0.2178767E+04  0.6505908E+00  0.2568609E-03 -0.1564869E+01  0.3408745E+04 -0.2424606E+01  0.2613554E-02  0.2175027E+01  0.3200554E+03 -0.2245324E+01  0.4654905E-03  0.1098749E+01  0.2518673E+04 -0.7333906E+00  0.2955933E-03 -0.2863024E+01  0.3946595E+04 -0.7728404E+00  0.6850460E-03 -0.2655709E+01
  0.2257452E+01  0.5784604E+04 -0.1558527E+01  0.2732492E-02 -0.3065317E+01  0.3845035E+04 -0.9592636E-01  0.8037177E-03  0.6454310E-01  0.5091039E+03 -0.1558753E+01  0.4509406E-11  0.1456659E+00  0.6923944E+03 -0.7864237E+00  0.3461815E-03  0.1972517E+01  0.2090509E+04  0.7672476E+00  0.2367867E-02  0.7429615E+00  0.3271717E+04 -0.2293349E+01  0.2230299E-02 -0.6332893E+00  0.3726541E+03 -0.2385288E+01  0.8644019E-03 -0.2653139E+01  0.2490857E+04 -0.8435338E+00  0.3268920E-02 -0.1862069E+01  0.3900362E+04 -0.8900013E+00  0.1350268E-02  0.3010139E+01
  0.2438451E+01  0.6526467E+04 -0.1556412E+01  0.5024956E-02 -0.2138150E-02  0.3439984E+04 -0.1115717E+00  0.5956849E-03 -0.2438240E-01  0.6059852E+03 -0.1556630E+01  0.1155472E-11  0.4772141E+00  0.8000236E+03 -0.6508588E+00  0.1372340E-02 -0.1225058E+01  0.2000983E+04  0.8949025E+00  0.2091130E-02  0.1332092E+01  0.3132966E+04 -0.2148948E+01  0.2755753E-02 -0.1364367E+01  0.4310038E+03 -0.2540645E+01  0.7212675E-03 -0.9304258E+00  0.2439075E+04 -0.9550783E+00  0.2615767E-02 -0.3097799E+01  0.3812654E+04 -0.1009987E+01  0.1455128E-02  0.1238920E+01
  0.2619451E+01  0.7283312E+04 -0.1554281E+01  0.9159509E-02  0.6792824E-01  0.3044922E+04 -0.1246783E+00  0.1317337E-02 -0.3053698E+01  0.7146242E+03 -0.1554487E+01  0.4479439E-11  0.1014109E+00  0.9139279E+03 -0.5033757E+00  0.8639862E-03  0.1768151E+01  0.1909901E+04  0.1034580E+01  0.2883522E-02 -0.1901944E+01  0.2992360E+04 -0.1990078E+01  0.2081146E-02 -0.7084004E+00  0.4973511E+03 -0.2707086E+01  0.3708343E-03 -0.2758421E+01  0.2354516E+04 -0.1071267E+01  0.2853206E-02 -0.1820811E+01  0.3670119E+04 -0.1136846E+01  0.9161328E-03  0.2910580E+01
  0.2800450E+01  0.8067985E+04 -0.1550391E+01  0.1535652E-01 -0.2080838E-02  0.2656845E+04 -0.1353029E+00  0.6107097E-03  0.3789534E-01  0.8376310E+03 -0.1550579E+01  0.1659021E-11  0.1339963E+00  0.1033527E+04 -0.3431160E+00  0.8850534E-03 -0.2211704E+01  0.1815876E+04  0.1187455E+01  0.2466037E-02 -0.1927749E+01  0.2848116E+04 -0.1815129E+01  0.2257198E-02  0.9314918E+00  0.5727681E+03 -0.2879518E+01  0.8532328E-04  0.1150556E+01  0.2235198E+04 -0.1196645E+01  0.7286639E-03  0.2699699E+01  0.3471429E+04 -0.1276030E+01  0.1656488E-02  0.2271489E+01
  0.2981450E+01  0.8897568E+04 -0.1540766E+01  0.2268813E-02  0.3090707E+01  0.2273732E+04 -0.1460073E+00  0.5340807E-03  0.5062985E+00  0.9783370E+03 -0.1540929E+01  0.1551827E-11 -0.7756796E+00  0.1157532E+04 -0.1690173E+00  0.1346654E-02  0.1734924E+01  0.1716064E+04  0.1354427E+01  0.5390181E-02  0.1513906E+01  0.2696108E+04 -0.1622556E+01  0.7907572E-03 -0.2871494E+01  0.6564218E+03 -0.3056077E+01  0.1007113E-02  0.1579446E+01  0.2084779E+04 -0.1335083E+01  0.1011733E-02  0.1444947E+01  0.3224312E+04 -0.1432395E+01  0.8511006E-03  0.1736964E+01
  0.3162450E+01  0.9772326E+04 -0.1518582E+01  0.6358753E-03 -0.5134097E+00  0.1901567E+04 -0.1631999E+00  0.9253775E-03 -0.2986650E+01  0.1138683E+04 -0.1518719E+01  0.5806273E-11  0.3068563E+01  0.1283191E+04  0.1994463E-01  0.1443200E-02  0.1537397E+01  0.1606230E+04  0.1535201E+01  0.4593665E-02 -0.1571764E+01  0.2529614E+04 -0.1411640E+01  0.6073759E-03 -0.1648168E+01  0.7482095E+03  0.3043563E+01  0.5459760E-04 -0.2517291E+01  0.1905015E+04 -0.1489029E+01  0.1961186E-03 -0.5072770E+00  0.2932648E+04 -0.1610231E+01  0.1515540E-02  0.1350582E+01
  0.3343449E+01  0.1062918E+05 -0.1475465E+01  0.2346857E-02 -0.2928942E+01  0.1553840E+04 -0.1972571E+00  0.4695591E-04 -0.1383310E+01  0.1312821E+04 -0.1475573E+01  0.2417515E-11 -0.2568879E+00  0.1405020E+04  0.2241068E+00  0.6928467E-03 -0.1485287E+01  0.1482518E+04  0.1726791E+01  0.2719018E-02  0.1450349E+01  0.2341290E+04 -0.1183984E+01  0.7338398E-03  0.2062600E+01  0.8543533E+03  0.2852329E+01  0.2319157E-03  0.3816395E+00  0.1688998E+04 -0.1666337E+01  0.1674950E-02 -0.1581468E+01  0.2590500E+04 -0.1822526E+01  0.1476008E-02 -0.1628091E+01
  0.3524449E+01  0.1128584E+05 -0.1407437E+01  0.3003307E-02 -0.2565693E-01  0.1251603E+04 -0.2589377E+00  0.4831541E-03 -0.7170404E-01  0.1477460E+04 -0.1407520E+01  0.2912328E-11 -0.6540491E+00  0.1514332E+04  0.4411517E+00  0.7047025E-03  0.2303651E+00  0.1344932E+04  0.1921267E+01  0.1942876E-02  0.3081335E+01  0.2127899E+04 -0.9460666E+00  0.2598043E-03  0.2007634E+01  0.9843278E+03  0.2666855E+01  0.1672479E-04 -0.4163326E+00  0.1442919E+04 -0.1897303E+01  0.1727947E-02  0.3041468E+01  0.2233111E+04 -0.2108003E+01  0.6108625E-03 -0.1097907E+01
  0.3705448E+01  0.1149233E+05 -0.1324122E+01  0.9787224E-03 -0.7464183E+00  0.1009921E+04 -0.3518718E+00  0.2243335E-03 -0.6823794E+00  0.1594092E+04 -0.1324181E+01  0.1688068E-11  0.1316565E+01  0.1604528E+04  0.6641512E+00  0.1143164E-02  0.1777568E+01  0.1204864E+04  0.2106732E+01  0.3136228E-02  0.2046194E+01  0.1903292E+04 -0.7096024E+00  0.1520376E-02  0.1408337E+01  0.1128408E+04  0.2507438E+01  0.2736600E-03  0.1296554E+01  0.1235608E+04 -0.2230231E+01  0.2629884E-02 -0.2559626E+01  0.2016893E+04 -0.2501429E+01  0.1396121E-02 -0.1873769E+01
  0.3886448E+01  0.1115163E+05 -0.1248119E+01  0.5106785E-02  0.3780696E+00  0.8303521E+03 -0.4663073E+00  0.1060230E-02  0.3139474E+01  0.1637989E+04 -0.1248149E+01  0.1518687E-11  0.2768250E+01  0.1681760E+04  0.8855648E+00  0.1588951E-03  0.3584704E+00  0.1082396E+04  0.2277784E+01  0.1040477E-02  0.1463478E+01  0.1698566E+04 -0.4821636E+00  0.2438197E-02  0.1191953E+01  0.1248135E+04  0.2372353E+01  0.5933598E-03  0.1231743E+01  0.1167987E+04 -0.2641831E+01  0.1174205E-02 -0.1660675E+01  0.2080904E+04 -0.2919272E+01  0.5272944E-03 -0.3125891E+01
  0.4067448E+01  0.1042014E+05 -0.1199338E+01  0.1282231E-02  0.6269685E-01  0.7002921E+03 -0.5852411E+00  0.1396308E-02 -0.3299766E-01  0.1619299E+04 -0.1199346E+01  0.6241741E-12 -0.1209679E+01  0.1762703E+04  0.1105526E+01  0.2341324E-02 -0.2703128E+00  0.9888875E+03  0.2443491E+01  0.2518594E-02 -0.1539940E+01  0.1535961E+04 -0.2570076E+00  0.1690553E-02  0.1830702E+00  0.1307931E+04  0.2237201E+01  0.7763505E-03  0.4150325E+00  0.1230774E+04 -0.3019815E+01  0.2680027E-02  0.2000091E+01  0.2308305E+04  0.3029897E+01  0.1954436E-02 -0.2609398E+01
  0.4248447E+01  0.9524475E+04 -0.1186373E+01  0.7506317E-02 -0.5911910E-01  0.6048069E+03 -0.6905314E+00  0.2725826E-03  0.1439675E+01  0.1564273E+04 -0.1186359E+01  0.2087815E-11 -0.1093490E+01  0.1859865E+04  0.1331578E+01  0.1335379E-02  0.2914142E+01  0.9208516E+03  0.2617247E+01  0.1784284E-02  0.8832265E-01  0.1413812E+04 -0.2048108E-01  0.2677369E-02  0.3234631E+00  0.1296804E+04  0.2075547E+01  0.3992228E-03 -0.3541846E+00  0.1338155E+04  0.2957099E+01  0.1272953E-02 -0.2831385E+01  0.2528470E+04  0.2767485E+01  0.7681132E-03 -0.1118734E+01
  0.4429447E+01  0.8633803E+04 -0.1213206E+01  0.6469657E-03  0.7824378E+00  0.5297801E+03 -0.7659368E+00  0.1910456E-02 -0.3054223E+01  0.1496683E+04 -0.1213155E+01  0.6355997E-11  0.3047549E+01  0.1975339E+04  0.1572413E+01  0.7577653E-03 -0.3751560E+00  0.8702797E+03  0.2807170E+01  0.2319452E-02  0.1526893E+00  0.1319629E+04  0.2369323E+00  0.2445118E-03 -0.1670516E+01  0.1223225E+04  0.1861297E+01  0.7581911E-04  0.1193974E+01  0.1443804E+04  0.2700845E+01  0.6792218E-03  0.2746003E+01  0.2679000E+04  0.2538813E+01  0.8364179E-03  0.2672229E+01
