VARIABLES="Frequency (rad/s)" "|Fx| (N/m)" "|Fy| (N/m)" "|Fz| (N/m)" "|Cx| (N)" "|Cy| (N)" "|Cz| (N)" "ang(Fx) (°)" "ang(Fy) (°)" "ang(Fz) (°)" "ang(Cx) (°)" "ang(Cy) (°)" "ang(Cz) (°)"
Zone t="Corps  1"
Zone t="Excitation force - beta =   0.000 deg",I=    20,F=POINT
 0.9905  0.131698E+04  0.754486E-02  0.678581E+04  0.115952E-02  0.863201E+02  0.532351E-12  140.75    0.00 2636.47    0.00 4119.52    0.00
   77.95    0.00 2678.85    0.00 4185.81    0.00
  -89.99 -179.87   -0.39   -0.45  -90.00  178.47
  -82.04  -24.99    8.83    5.18 -170.42 -172.75
  -97.94   11.58   -9.58  122.44  -10.10   -4.25
 1.1715  0.181320E+04  0.924320E-02  0.640828E+04  0.264450E-02  0.122573E+03  0.363968E-11  195.74    0.00 2574.50    0.01 4023.27    0.00
  108.49    0.00 2639.54    0.00 4125.53    0.00
  -89.97    0.44   -0.72 -179.72  -89.98  176.35
  -78.55   83.28   12.24   15.69 -166.69  158.78
 -101.40   85.81  -13.60 -173.71  -14.34 -145.09
 1.3525  0.237252E+04  0.118823E-01  0.599804E+04  0.279980E-02  0.166131E+03  0.168308E-11  259.17    0.00 2505.03    0.00 3915.43    0.00
  143.57    0.00 2602.64    0.00 4069.66    0.00
  -89.92    0.25   -1.20    0.40  -89.93   -5.67
  -74.47  155.18   16.19  177.43 -162.36   27.86
 -105.45 -157.95  -18.34   -0.09  -19.33  145.01
 1.5335  0.298636E+04  0.139280E-01  0.556770E+04  0.207000E-03  0.217481E+03  0.818566E-11  330.75    0.00 2429.46    0.00 3798.11    0.00
  182.76    0.00 2572.20    0.00 4024.57    0.00
  -89.84  179.71   -1.84 -167.68  -89.86 -179.59
  -69.80  158.88   20.65  -10.56 -157.44    8.25
 -110.11   13.44  -23.71 -171.80  -24.98  -18.36
 1.7145  0.364493E+04  0.728528E-02  0.512896E+04  0.118842E-02  0.277068E+03  0.307794E-11  410.20    0.00 2349.15    0.00 3673.40    0.00
  225.49    0.00 2550.23    0.00 3993.08    0.00
  -89.73 -179.79   -2.63  179.50  -89.74   -0.76
  -64.54  172.61   25.65  156.93 -151.91  -14.20
 -115.45  177.87  -29.58  161.90  -31.16  150.99
 1.8955  0.433763E+04  0.631133E-02  0.469149E+04  0.240665E-03  0.345284E+03  0.261635E-11  497.19    0.00 2265.27    0.00 3543.11    0.00
  271.28    0.00 2534.74    0.00 3971.21    0.00
  -89.59  178.22   -3.54 -174.51  -89.61   -3.44
  -58.67 -125.34   31.18 -129.50 -145.74   59.15
 -121.59    6.09  -35.74 -163.14  -37.65 -151.33
 2.0765  0.505375E+04  0.280858E-02  0.426229E+04  0.707949E-03  0.422480E+03  0.463073E-11  591.36    0.00 2178.77    0.00 3408.75    0.00
  320.06    0.00 2518.67    0.00 3946.60    0.00
  -89.44   -5.69   -4.52    0.67  -89.45  177.80
  -52.18  -74.99   37.28  -89.66 -138.92  124.62
 -128.65   62.95  -42.02 -164.04  -44.28 -152.16
 2.2575  0.578460E+04  0.273249E-02  0.384504E+04  0.803718E-03  0.509104E+03  0.450941E-11  692.39    0.00 2090.51    0.00 3271.72    0.00
  372.65    0.00 2490.86    0.00 3900.36    0.00
  -89.30 -175.63   -5.50    3.70  -89.31    8.35
  -45.06  113.02   43.96   42.57 -131.40  -36.28
 -136.67 -152.01  -48.33 -106.69  -50.99  172.47
 2.4385  0.652647E+04  0.502496E-02  0.343998E+04  0.595685E-03  0.605985E+03  0.115547E-11  800.02    0.00 2000.98    0.00 3132.97    0.00
  431.00    0.00 2439.07    0.00 3812.65    0.00
  -89.18   -0.12   -6.39   -1.40  -89.19   27.34
  -37.29  -70.19   51.27   76.32 -123.13  -78.17
 -145.57  -53.31  -54.72 -177.49  -57.87   70.98
 2.6195  0.728331E+04  0.915951E-02  0.304492E+04  0.131734E-02  0.714624E+03  0.447944E-11  913.93    0.00 1909.90    0.00 2992.36    0.00
  497.35    0.00 2354.52    0.00 3670.12    0.00
  -89.05    3.89   -7.14 -174.96  -89.07    5.81
  -28.84  101.31   59.28 -108.97 -114.02  -40.59
 -155.10 -158.05  -61.38 -104.32  -65.14  166.76
 2.8005  0.806799E+04  0.153565E-01  0.265684E+04  0.610710E-03  0.837631E+03  0.165902E-11 1033.53    0.00 1815.88    0.00 2848.12    0.00
  572.77    0.00 2235.20    0.00 3471.43    0.00
  -88.83   -0.12   -7.75    2.17  -88.84    7.68
  -19.66 -126.72   68.04 -110.45 -104.00   53.37
 -164.98   65.92  -68.56  154.68  -73.11  130.15
 2.9815  0.889757E+04  0.226881E-02  0.227373E+04  0.534081E-03  0.978337E+03  0.155183E-11 1157.53    0.00 1716.06    0.01 2696.11    0.00
  656.42    0.00 2084.78    0.00 3224.31    0.00
  -88.28  177.08   -8.37   29.01  -88.29  -44.44
   -9.68   99.40   77.60   86.74  -92.97 -164.52
 -175.10   90.50  -76.49   82.79  -82.07   99.52
 3.1624  0.977233E+04  0.635875E-03  0.190157E+04  0.925377E-03  0.113868E+04  0.580627E-11 1283.19    0.00 1606.23    0.00 2529.61    0.00
  748.21    0.00 1905.02    0.00 2932.65    0.00
  -87.01  -29.42   -9.35 -171.12  -87.02  175.82
    1.14   88.09   87.96  -90.06  -80.88  -94.43
  174.38 -144.23  -85.32  -29.06  -92.26   77.38
 3.3434  0.106292E+05  0.234686E-02  0.155384E+04  0.469559E-04  0.131282E+04  0.241751E-11 1405.02    0.00 1482.52    0.00 2341.29    0.00
  854.35    0.00 1689.00    0.00 2590.50    0.00
  -84.54 -167.82  -11.30  -79.26  -84.54  -14.72
   12.84  -85.10   98.94   83.10  -67.84  118.18
  163.43   21.87  -95.47  -90.61 -104.42  -93.28
 3.5244  0.112858E+05  0.300331E-02  0.125160E+04  0.483154E-03  0.147746E+04  0.291233E-11 1514.33    0.00 1344.93    0.00 2127.90    0.00
  984.33    0.00 1442.92    0.00 2233.11    0.00
  -80.64   -1.47  -14.84   -4.11  -80.64  -37.47
   25.28   13.20  110.08  176.55  -54.21  115.03
  152.80  -23.85 -108.71  174.26 -120.78  -62.91
 3.7054  0.114923E+05  0.978722E-03  0.100992E+04  0.224333E-03  0.159409E+04  0.168807E-11 1604.53    0.00 1204.86    0.00 1903.29    0.00
 1128.41    0.00 1235.61    0.00 2016.89    0.00
  -75.87  -42.77  -20.16  -39.10  -75.87   75.43
   38.05  101.85  120.71  117.24  -40.66   80.69
  143.67   74.29 -127.78 -146.66 -143.32 -107.36
 3.8864  0.111516E+05  0.510678E-02  0.830352E+03  0.106023E-02  0.163799E+04  0.151869E-11 1681.76    0.00 1082.40    0.00 1698.57    0.00
 1248.14    0.00 1167.99    0.00 2080.90    0.00
  -71.51   21.66  -26.72  179.88  -71.51  158.61
   50.74   20.54  130.51   83.85  -27.63   68.29
  135.93   70.57 -151.37  -95.15 -167.26 -179.10
 4.0674  0.104201E+05  0.128223E-02  0.700292E+03  0.139631E-02  0.161930E+04  0.624174E-12 1762.70    0.00  988.89    0.00 1535.96    0.00
 1307.93    0.00 1230.77    0.00 2308.30    0.00
  -68.72    3.59  -33.53   -1.89  -68.72  -69.31
   63.34  -15.49  140.00  -88.23  -14.73   10.49
  128.18   23.78 -173.02  114.60  173.60 -149.51
 4.2484  0.952447E+04  0.750632E-02  0.604807E+03  0.272583E-03  0.156427E+04  0.208782E-11 1859.86    0.00  920.85    0.00 1413.81    0.00
 1296.80    0.00 1338.15    0.00 2528.47    0.00
  -67.97   -3.39  -39.56   82.49  -67.97  -62.65
   76.29  166.97  149.96    5.06   -1.17   18.53
  118.92  -20.29  169.43 -162.23  158.57  -64.10
 4.4294  0.863380E+04  0.646966E-03  0.529780E+03  0.191046E-02  0.149668E+04  0.635600E-11 1975.34    0.00  870.28    0.00 1319.63    0.00
 1223.23    0.00 1443.80    0.00 2679.00    0.00
  -69.51   44.83  -43.88 -174.99  -69.51  174.61
   90.09  -21.49  160.84    8.75   13.58  -95.71
  106.64   68.41  154.75  157.33  145.46  153.11
