VARIABLES="w (rad/s)"
"abs(F   1   1)" "angle(F   1   1)"
"abs(F   1   2)" "angle(F   1   2)"
"abs(F   1   3)" "angle(F   1   3)"
"abs(F   1   4)" "angle(F   1   4)"
"abs(F   1   5)" "angle(F   1   5)"
"abs(F   1   6)" "angle(F   1   6)"
"abs(F   2   7)" "angle(F   2   7)"
"abs(F   2   8)" "angle(F   2   8)"
"abs(F   2   9)" "angle(F   2   9)"
"abs(F   2  10)" "angle(F   2  10)"
"abs(F   2  11)" "angle(F   2  11)"
"abs(F   2  12)" "angle(F   2  12)"
"abs(F   3  13)" "angle(F   3  13)"
"abs(F   3  14)" "angle(F   3  14)"
"abs(F   3  15)" "angle(F   3  15)"
"abs(F   3  16)" "angle(F   3  16)"
"abs(F   3  17)" "angle(F   3  17)"
"abs(F   3  18)" "angle(F   3  18)"
Zone t="FKforce - beta =   0.000",I=    20,F=POINT
  0.9904544E+00  0.7511591E+03 -0.1570796E+01  0.7569194E-02  0.3141553E+01  0.7083252E+04 -0.5509110E-10  0.1177971E-02 -0.1546473E-03  0.5077487E+02 -0.1570795E+01  0.4549693E-12  0.3110353E+01  0.2464329E-03 -0.7838589E+00  0.3347101E-02  0.1171512E+00  0.5134147E-02  0.2165550E-01  0.2286817E-02  0.1790603E+00  0.5011048E-03 -0.8168281E+00  0.1076549E-01 -0.3116913E+01  0.1734338E-03 -0.3019284E+01  0.4104912E-02 -0.9791468E-01  0.2897483E-02 -0.3021595E-01  0.3036417E-02 -0.2946630E+00  0.5929621E-02 -0.3119380E+01  0.3128548E-02 -0.2121099E+00
  0.1171454E+01  0.1030136E+04 -0.1570796E+01  0.9096220E-02 -0.6890555E-04  0.6804251E+04 -0.5952634E-09  0.2637489E-02  0.3141300E+01  0.7180116E+02 -0.1570796E+01  0.3876855E-11  0.3064540E+01  0.3527232E-03 -0.1935738E+01  0.7036595E-02 -0.2919831E+01  0.1629352E-02  0.4693450E+00  0.8642984E-02  0.9632561E-01  0.5211404E-03  0.2664262E+01  0.1240974E-01  0.3081413E+01  0.2097169E-03 -0.1468300E+01  0.4062669E-02  0.2786219E+01  0.3034701E-03 -0.5707061E+00  0.8357290E-02 -0.5461500E-01  0.3355603E-03 -0.2454741E+00  0.4492125E-02 -0.1259876E+00
  0.1352454E+01  0.1341661E+04 -0.1570796E+01  0.1188789E-01 -0.2292290E-03  0.6491525E+04 -0.4002742E-09  0.2807730E-02  0.1225160E-03  0.9684025E+02 -0.1570796E+01  0.1823480E-11 -0.7019697E-01  0.9290374E-04 -0.6250227E+00  0.1166799E-02  0.2366852E+00  0.4876086E-02  0.1015147E+00  0.1878924E-02 -0.1142212E+01  0.2360421E-02 -0.3097224E+00  0.1249956E-01  0.2995702E+01  0.4329750E-03  0.2370212E+01  0.3808632E-02 -0.1376179E+00  0.3134441E-02 -0.2785654E+00  0.1985316E-02  0.1108904E+01  0.4025624E-02 -0.2963540E+01  0.3665625E-02 -0.7799906E-01
  0.1533453E+01  0.1679871E+04 -0.1570796E+01  0.1353410E-01  0.3141449E+01  0.6150512E+04  0.8944495E-09  0.1066011E-03  0.3133176E+01  0.1260565E+03 -0.1570796E+01  0.8187229E-11  0.3120762E+01  0.4738591E-03 -0.6682582E+00  0.1945832E-02 -0.1880870E+01  0.1450792E-02  0.2104882E+01  0.7077683E-02 -0.2994382E+01  0.3007337E-02 -0.2300843E+01  0.5460161E-02  0.3085847E+01  0.3485641E-03 -0.3643746E+00  0.1957656E-02  0.3086469E+01  0.1723445E-02 -0.2009540E+01  0.4540646E-02  0.3038254E+01  0.3490039E-02 -0.5400841E+00  0.4723229E-02  0.4274755E+00
  0.1714453E+01  0.2038512E+04 -0.1570796E+01  0.7382497E-02  0.3141538E+01  0.5786904E+04 -0.1526641E-08  0.1126328E-02 -0.3140896E+01  0.1595949E+03 -0.1570797E+01  0.2969491E-11 -0.9585915E-01  0.3579723E-03 -0.2120183E+01  0.6453573E-02 -0.2749055E+01  0.9566071E-03  0.2882008E+01  0.2510928E-02  0.1568233E+01  0.6656003E-02 -0.2839610E+01  0.2122287E-01 -0.3124393E+01  0.7088694E-05  0.2798569E+01  0.1042073E-01  0.2884243E+01  0.1698666E-02  0.3068120E+01  0.3306464E-02 -0.2003343E+01  0.7328751E-02 -0.3478484E+00  0.1125780E-01 -0.5940937E+00
  0.1895452E+01  0.2411111E+04 -0.1570796E+01  0.6273046E-02  0.3141355E+01  0.5406463E+04  0.3824193E-10  0.3060016E-03  0.3140076E+01  0.1975633E+03 -0.1570797E+01  0.3099009E-11 -0.1380060E+00  0.1792510E-03  0.8748659E+00  0.2696675E-02 -0.2304957E+01  0.3516361E-02  0.2793072E+00  0.4624729E-02 -0.2021662E+01  0.3591627E-02 -0.6252866E+00  0.2010561E-01 -0.1445410E+01  0.3684107E-03 -0.7693812E+00  0.2878371E-02  0.2749422E+01  0.2564221E-02 -0.3019246E+00  0.4133279E-02  0.2173532E+01  0.3187551E-02 -0.2395746E+01  0.2036818E-01 -0.1863693E+01
  0.2076452E+01  0.2791101E+04 -0.1570796E+01  0.3251241E-02 -0.1012892E-02  0.5015081E+04 -0.1203365E-09  0.6972856E-03  0.2042538E-03  0.2400183E+03 -0.1570796E+01  0.4774932E-11 -0.3135640E+01  0.6920892E-03  0.7749235E+00  0.4958394E-02  0.2977485E+01  0.2439910E-02 -0.4812545E-01  0.4349263E-02 -0.2044998E+01  0.3088397E-02 -0.1900344E+01  0.4929448E-02 -0.1700101E+01  0.6680280E-03 -0.1372491E+01  0.3185110E-02 -0.2700387E+01  0.2455189E-02 -0.1106130E+00  0.3584590E-02  0.2103053E+01  0.4058854E-02 -0.1206832E+01  0.1696034E-02 -0.7251247E+00
  0.2257452E+01  0.3172006E+04 -0.1570796E+01  0.2587933E-02 -0.3139865E+01  0.4618496E+04 -0.1350656E-08  0.7954394E-03 -0.5744580E-03  0.2869486E+03 -0.1570796E+01  0.4112023E-11  0.9691763E-01  0.6710846E-03 -0.5994329E+00  0.6966207E-02 -0.1148130E+01  0.1420835E-02  0.1148523E+01  0.5263786E-02  0.5469892E+00  0.5245435E-03  0.4129863E+00  0.1546092E-02 -0.2945104E+01  0.5643205E-03  0.2019139E+01  0.4764637E-02  0.1353578E+01  0.1115723E-02 -0.1111133E+01  0.4758959E-02 -0.5795752E+00  0.1830321E-02  0.1112545E+01  0.3188787E-02  0.1120925E+01
  0.2438451E+01  0.3547513E+04 -0.1570796E+01  0.4730227E-02 -0.1127772E-02  0.4222162E+04  0.2117564E-08  0.5977391E-03  0.1476481E-02  0.3382599E+03 -0.1570796E+01  0.1525269E-11 -0.4636476E+00  0.7699880E-03 -0.6801087E+00  0.9968011E-03 -0.2546291E+01  0.1352204E-02  0.2136332E+00  0.4473564E-02 -0.1790182E+01  0.2538599E-02 -0.1573244E+01  0.4063674E-02  0.2509380E+01  0.2458487E-03 -0.1444878E+01  0.2357517E-02  0.3070989E+01  0.9282252E-03 -0.1003575E+01  0.4469026E-02  0.2084200E+01  0.3876023E-02 -0.1298961E+01  0.7219429E-02  0.3587238E-01
  0.2619451E+01  0.3911675E+04 -0.1570796E+01  0.8759588E-02  0.1871238E-04  0.3831200E+04  0.3435334E-08  0.1199181E-02  0.3141284E+01  0.3937576E+03 -0.1570796E+01  0.4663326E-11 -0.3047836E-01  0.1267054E-02 -0.2896725E+00  0.6058057E-02  0.7746683E+00  0.1844254E-02  0.1771192E+01  0.3103281E-02 -0.1574815E+01  0.1691034E-02  0.1933158E+01  0.5043425E-02  0.9182943E+00  0.1302730E-02  0.2912472E+01  0.2933058E-02 -0.8605018E+00  0.1388512E-02 -0.1765157E+01  0.3360884E-02  0.1565560E+01  0.2212800E-02  0.1412505E+01  0.1378252E-02  0.2159399E+01
  0.2800450E+01  0.4258940E+04 -0.1570796E+01  0.1496128E-01 -0.1272367E-03  0.3450207E+04  0.2604848E-08  0.5937200E-03  0.1385254E-02  0.4531420E+03 -0.1570796E+01  0.2006701E-11  0.2724631E+00  0.6365289E-03  0.1122290E+00  0.3166903E-02  0.1631215E+01  0.1612253E-02  0.1003273E+01  0.1455053E-03 -0.2363508E+01  0.6114278E-02  0.1734836E+01  0.3211369E-02 -0.9398276E+00  0.2402684E-03 -0.2842437E+01  0.4920204E-02 -0.1703493E+01  0.2099902E-02 -0.1215305E+01  0.9015051E-03  0.1448348E+01  0.4417039E-02  0.1399853E+01  0.2089695E-02  0.2871102E+01
  0.2981450E+01  0.4584314E+04 -0.1570796E+01  0.2240339E-02  0.3140613E+01  0.3083256E+04 -0.8940921E-09  0.4322047E-03  0.1290433E-02  0.5159919E+03 -0.1570796E+01  0.1033003E-11  0.1380060E+00  0.5438769E-03 -0.1125774E+01  0.2884769E-02  0.1480938E+01  0.9898245E-03  0.1404989E+01  0.3450038E-02  0.1391437E+01  0.6578119E-03 -0.2172577E+01  0.9604023E-02  0.1548303E+01  0.2565270E-03  0.1633724E+00  0.1072428E-03  0.1019210E+00  0.1131514E-02 -0.1387674E+01  0.4497922E-02 -0.1424772E+01  0.3613795E-03 -0.1241031E+00  0.4944093E-02  0.1606248E+01
  0.3162450E+01  0.4883340E+04 -0.1570796E+01  0.2392391E-03 -0.2896286E-02  0.2733801E+04  0.2266815E-08  0.8037283E-03 -0.3139886E+01  0.5817621E+03 -0.1570796E+01  0.6142312E-11  0.3109197E+01  0.2332646E-03  0.2586054E+01  0.4971551E-02 -0.1558284E+01  0.4361578E-03  0.1582644E+01  0.9302578E-03 -0.1561763E+01  0.4940860E-02  0.1586623E+01  0.1018881E-02  0.2516134E+01  0.6331622E-03 -0.9579067E-01  0.4177376E-02  0.1575207E+01  0.6358205E-03 -0.1595663E+01  0.2732823E-02  0.1585801E+01  0.6122942E-02  0.1567964E+01  0.8867835E-02  0.1512865E+01
  0.3343449E+01  0.5152248E+04 -0.1570796E+01  0.1846150E-02 -0.3141048E+01  0.2404633E+04  0.3636004E-08  0.1547720E-03  0.2785156E-01  0.6497836E+03 -0.1570796E+01  0.3166949E-11 -0.3671738E+00  0.6276417E-03 -0.2837523E+00  0.2503565E-02  0.1414760E+01  0.4309361E-03  0.2572782E+01  0.2687969E-02 -0.1464163E+01  0.3014698E-02 -0.1479154E+01  0.2628147E-02 -0.6354491E-01  0.8137366E-03 -0.3135733E+01  0.4351486E-02 -0.1812844E+01  0.3542577E-03 -0.2023119E+01  0.1635041E-02  0.1259320E+01  0.3245006E-02 -0.1642569E+01  0.3408132E-02  0.2715058E+01
  0.3524449E+01  0.5387835E+04 -0.1570796E+01  0.3325303E-02 -0.6296008E-03  0.2097906E+04  0.7466894E-09  0.5389100E-03 -0.8826982E-03  0.7192655E+03 -0.1570796E+01  0.2303562E-11 -0.1610919E+00  0.1864231E-03  0.1977934E+01  0.8319493E-03  0.1642050E+01  0.6695967E-03  0.2732074E+01  0.2182170E-02 -0.1546580E+01  0.2127495E-02 -0.1295511E+01  0.5618144E-02  0.2049815E+01  0.7697654E-03  0.1876434E+01  0.7129525E-02 -0.1515612E+01  0.7669228E-03 -0.2158042E+01  0.3352673E-02  0.1662242E+01  0.2066571E-02 -0.1904869E+01  0.7504388E-02  0.1385177E+01
  0.3705448E+01  0.5587646E+04 -0.1570796E+01  0.9656908E-03 -0.3579900E-02  0.1815094E+04  0.5130989E-10  0.3168280E-04 -0.1311366E+00  0.7892997E+03 -0.1570796E+01  0.1449507E-11  0.1570796E+01  0.1132731E-02  0.2955936E+01  0.2505376E-02  0.2475169E+01  0.4468417E-03  0.8820869E+00  0.1314488E-02 -0.8205628E+00  0.2032051E-02 -0.1437534E+00  0.7771499E-02  0.1850307E+01  0.1864870E-02 -0.3338391E+00  0.4062526E-02 -0.3071235E+01  0.2250894E-03 -0.5146094E-01  0.1631379E-02  0.1039820E+01  0.2241094E-02 -0.3023966E+01  0.3682050E-02  0.1894205E+01
  0.3886448E+01  0.5749812E+04 -0.1570796E+01  0.5112539E-02 -0.1060926E-02  0.1557063E+04  0.3999081E-08  0.4342145E-03 -0.3129419E+01  0.8588738E+03 -0.1570796E+01  0.1479022E-11  0.3103150E+01  0.9143059E-03  0.2179087E+01  0.8734232E-04 -0.3126733E+00  0.7886229E-03 -0.2830547E+01  0.1116011E-02 -0.6480336E-01  0.2407355E-02  0.1168079E+00  0.5162331E-02 -0.2839596E+01  0.3323074E-03  0.1662041E+01  0.8590294E-03  0.3562653E+00  0.1020213E-02  0.2964952E+01  0.8187740E-03 -0.1469237E+00  0.2304074E-02  0.2578353E+01  0.6433308E-02 -0.9285758E-01
  0.4067448E+01  0.5873055E+04 -0.1570796E+01  0.1716013E-02 -0.9723607E-02  0.1324080E+04 -0.4812480E-08  0.1521803E-02 -0.1588439E-02  0.9268961E+03 -0.1570796E+01  0.1757786E-11 -0.8884798E+00  0.7863706E-03  0.6331319E+00  0.2683342E-02  0.9941220E+00  0.8654318E-03 -0.3090381E+01  0.3617086E-02 -0.9315865E-01  0.1016804E-02 -0.2970565E+01  0.3690972E-02  0.5155967E+00  0.1727462E-02  0.2986916E+01  0.1661693E-02 -0.2240225E+00  0.1207751E-02  0.3044687E+01  0.3770116E-02  0.1174558E+00  0.7159003E-03  0.1945401E+00  0.5654025E-02  0.2731673E+01
  0.4248447E+01  0.5956742E+04 -0.1570796E+01  0.7204971E-02 -0.3965731E-03  0.1115907E+04  0.8446032E-09  0.4728368E-04 -0.1087453E+00  0.9921977E+03 -0.1570796E+01  0.2431842E-11 -0.7936624E+00  0.7637237E-03  0.1076918E+01  0.2820394E-03 -0.6387196E+00  0.9118656E-04  0.1590407E+01  0.2453563E-02  0.2821165E+01  0.2802259E-03  0.3062598E+01  0.1314011E-02 -0.4259067E+00  0.8968722E-04 -0.2088653E+00  0.1167211E-02  0.6546299E+00  0.3299459E-03 -0.2562153E+01  0.1451071E-02 -0.2745789E+01  0.4923377E-03  0.3526458E+00  0.8277588E-03  0.2552152E+01
  0.4429447E+01  0.6000693E+04 -0.1570796E+01  0.4580308E-03 -0.1744269E-01  0.9318350E+03  0.5177152E-08  0.2127546E-02  0.3140865E+01  0.1053580E+04 -0.1570796E+01  0.4656934E-11  0.3013074E+01  0.2990482E-02  0.1622082E+01  0.1102328E-03  0.2949608E+00  0.4740512E-03  0.3118428E+01  0.1237885E-02 -0.8275852E-03  0.2484116E-02 -0.3090302E+01  0.1585189E-02  0.2983718E+00  0.3677628E-02  0.1562044E+01  0.3428546E-03  0.1436411E+00  0.3088217E-03 -0.3059571E+01  0.9440567E-03 -0.3956055E-01  0.2451730E-02 -0.1551501E-01  0.1031458E-02  0.3092338E+01
Zone t="FKforce - beta =  22.500",I=    20,F=POINT
  0.9904544E+00  0.6939813E+03 -0.1570796E+01  0.2874563E+03 -0.1570808E+01  0.7083255E+04  0.2621691E-08  0.1943069E+02  0.1570809E+01  0.4690984E+02 -0.1570796E+01  0.2659997E-06  0.1697970E+01  0.8588956E-01  0.1713247E+01  0.8170232E+03 -0.1426484E+01  0.1541403E+01 -0.2997165E+01  0.2521133E+03  0.1715076E+01  0.2405776E+01  0.1530932E+00  0.1276247E+04 -0.1428225E+01  0.8595505E-01  0.1427558E+01  0.8170241E+03 -0.1715113E+01  0.1542363E+01  0.2997273E+01  0.2521135E+03  0.1426496E+01  0.2413244E+01  0.2989007E+01  0.1276246E+04  0.1428248E+01
  0.1171454E+01  0.9517200E+03 -0.1570796E+01  0.3942158E+03 -0.1570803E+01  0.6804252E+04 -0.1437611E-07  0.2747717E+02  0.1570832E+01  0.6633565E+02 -0.1570797E+01  0.3674594E-06  0.1747863E+01  0.2325408E+00  0.1772768E+01  0.1128972E+04 -0.1368919E+01  0.2943337E+01 -0.2939514E+01  0.3482858E+03  0.1772658E+01  0.4602719E+01  0.2136946E+00  0.1763538E+04 -0.1371373E+01  0.2325751E+00  0.1368790E+01  0.1128972E+04 -0.1772675E+01  0.2943570E+01  0.2939563E+01  0.3482878E+03  0.1368906E+01  0.4602172E+01  0.2927766E+01  0.1763541E+04  0.1371370E+01
  0.1352454E+01  0.1239533E+04 -0.1570796E+01  0.5134314E+03 -0.1570800E+01  0.6491523E+04  0.1074428E-08  0.3705924E+02  0.1570829E+01  0.8946891E+02 -0.1570796E+01  0.4841562E-06  0.1805026E+01  0.5426602E+00  0.1839583E+01  0.1483002E+04 -0.1301708E+01  0.5085971E+01 -0.2872486E+01  0.4573639E+03  0.1839884E+01  0.7949781E+01  0.2855680E+00  0.2316565E+04 -0.1304983E+01  0.5429522E+00  0.1302034E+01  0.1483002E+04 -0.1839881E+01  0.5085837E+01  0.2872462E+01  0.4573636E+03  0.1301724E+01  0.7949334E+01  0.2856023E+01  0.2316567E+04  0.1304983E+01
  0.1533453E+01  0.1551998E+04 -0.1570796E+01  0.6428577E+03 -0.1570779E+01  0.6150517E+04 -0.5900152E-08  0.4823988E+02  0.1570809E+01  0.1164609E+03 -0.1570796E+01  0.6165905E-06  0.1868543E+01  0.1134183E+01  0.1917081E+01  0.1874350E+04 -0.1224870E+01  0.8136885E+01 -0.2795653E+01  0.5778344E+03  0.1916722E+01  0.1271776E+02  0.3676454E+00  0.2927893E+04 -0.1229061E+01  0.1134616E+01  0.1224704E+01  0.1874349E+04 -0.1916727E+01  0.8136234E+01  0.2795669E+01  0.5778318E+03  0.1224877E+01  0.1271822E+02  0.2774003E+01  0.2927898E+04  0.1229057E+01
  0.1714453E+01  0.1883342E+04 -0.1570796E+01  0.7801048E+03 -0.1570786E+01  0.5786909E+04 -0.1516533E-07  0.6107438E+02  0.1570775E+01  0.1474464E+03 -0.1570796E+01  0.7660157E-06  0.1937336E+01  0.2173311E+01  0.2003165E+01  0.2297526E+04 -0.1138387E+01  0.1224923E+02 -0.2709193E+01  0.7079655E+03  0.2003207E+01  0.1914389E+02  0.4600170E+00  0.3588946E+04 -0.1143608E+01  0.2172930E+01  0.1138395E+01  0.2297530E+04 -0.2003211E+01  0.1224894E+02  0.2709187E+01  0.7079680E+03  0.1138383E+01  0.1914455E+02  0.2681573E+01  0.3588949E+04  0.1143607E+01
  0.1895452E+01  0.2227575E+04 -0.1570796E+01  0.9226921E+03 -0.1570803E+01  0.5406472E+04  0.1054683E-07  0.7560416E+02  0.1570794E+01  0.1825246E+03 -0.1570796E+01  0.9343016E-06  0.2009742E+01  0.3881819E+01  0.2099404E+01  0.2746363E+04 -0.1042263E+01  0.1754791E+02 -0.2612981E+01  0.8458040E+03  0.2099323E+01  0.2742300E+02  0.5631706E+00  0.4290107E+04 -0.1048617E+01  0.3882236E+01  0.1042236E+01  0.2746369E+04 -0.2099330E+01  0.1754754E+02  0.2612955E+01  0.8458006E+03  0.1042262E+01  0.2742435E+02  0.2578402E+01  0.4290092E+04  0.1048618E+01
  0.2076452E+01  0.2578645E+04 -0.1570796E+01  0.1068110E+04 -0.1570785E+01  0.5015082E+04  0.2491261E-07  0.9185120E+02  0.1570779E+01  0.2217481E+03 -0.1570796E+01  0.1124021E-05  0.2084316E+01  0.6546865E+01  0.2205080E+01  0.3214017E+04 -0.9365020E+00  0.2411457E+02 -0.2507283E+01  0.9891897E+03  0.2205093E+01  0.3770456E+02  0.6771516E+00  0.5020648E+04 -0.9440760E+00  0.6546546E+01  0.9365422E+00  0.3214017E+04 -0.2205091E+01  0.2411564E+02  0.2507302E+01  0.9891849E+03  0.9365075E+00  0.3770450E+02  0.2464441E+01  0.5020651E+04  0.9440778E+00
  0.2257452E+01  0.2930549E+04 -0.1570796E+01  0.1213871E+04 -0.1570792E+01  0.4618495E+04 -0.7578839E-08  0.1098106E+03  0.1570819E+01  0.2651062E+03 -0.1570796E+01  0.1337987E-05  0.2159257E+01  0.1051504E+02  0.2320489E+01  0.3692992E+04 -0.8211032E+00  0.3197832E+02 -0.2391908E+01  0.1135759E+04  0.2320487E+01  0.5002103E+02  0.8017870E+00  0.5768928E+04 -0.8299757E+00  0.1051521E+02  0.8210846E+00  0.3692998E+04 -0.2320490E+01  0.3197851E+02  0.2391908E+01  0.1135760E+04  0.8211089E+00  0.5002151E+02  0.2339812E+01  0.5768946E+04  0.8299749E+00
  0.2438451E+01  0.3277471E+04 -0.1570796E+01  0.1357575E+04 -0.1570796E+01  0.4222167E+04  0.8756114E-08  0.1294465E+03  0.1570790E+01  0.3125110E+03 -0.1570796E+01  0.1579139E-05  0.2233035E+01  0.1619812E+02  0.2445522E+01  0.4175251E+04 -0.6960644E+00  0.4110665E+02 -0.2266843E+01  0.1283008E+04  0.2445525E+01  0.6433636E+02  0.9376215E+00  0.6522370E+04 -0.7062981E+00  0.1619829E+02  0.6960424E+00  0.4175265E+04 -0.2445529E+01  0.4110699E+02  0.2266840E+01  0.1283012E+04  0.6960654E+00  0.6433583E+02  0.2203969E+01  0.6522395E+04  0.7062987E+00
  0.2619451E+01  0.3613911E+04 -0.1570796E+01  0.1496933E+04 -0.1570792E+01  0.3831200E+04  0.4364420E-07  0.1506845E+03  0.1570805E+01  0.3637850E+03 -0.1570796E+01  0.1850071E-05  0.2304231E+01  0.2405988E+02  0.2580204E+01  0.4652271E+04 -0.5613877E+00  0.5139474E+02 -0.2132174E+01  0.1428268E+04  0.2580206E+01  0.8051181E+02  0.1084643E+01  0.7267647E+04 -0.5730230E+00  0.2405991E+02  0.5614002E+00  0.4652274E+04 -0.2580205E+01  0.5139460E+02  0.2132171E+01  0.1428264E+04  0.5613820E+00  0.8051025E+02  0.2056947E+01  0.7267677E+04  0.5730251E+00
  0.2800450E+01  0.3934751E+04 -0.1570796E+01  0.1629828E+04 -0.1570801E+01  0.3450208E+04  0.9377449E-08  0.1734101E+03  0.1570797E+01  0.4186483E+03 -0.1570796E+01  0.2152996E-05  0.2371871E+01  0.3460305E+02  0.2724529E+01  0.5115128E+04 -0.4170703E+00  0.6267379E+02 -0.1987863E+01  0.1568763E+04  0.2724520E+01  0.9829009E+02  0.1243107E+01  0.7990857E+04 -0.4301322E+00  0.3460308E+02  0.4170754E+00  0.5115130E+04 -0.2724522E+01  0.6267429E+02  0.1987862E+01  0.1568761E+04  0.4170725E+00  0.9828974E+02  0.1898484E+01  0.7990849E+04  0.4301318E+00
  0.2981450E+01  0.4235353E+04 -0.1570796E+01  0.1754341E+04 -0.1570797E+01  0.3083258E+04  0.2216320E-07  0.1974613E+03  0.1570795E+01  0.4767146E+03 -0.1570796E+01  0.2489300E-05  0.2435215E+01  0.4835145E+02  0.2878485E+01  0.5554667E+04 -0.2631144E+00  0.7469414E+02 -0.1833916E+01  0.1701687E+04  0.2878478E+01  0.1173306E+03  0.1413299E+01  0.8677684E+04 -0.2775811E+00  0.4835088E+02  0.2631170E+00  0.5554656E+04 -0.2878478E+01  0.7469357E+02  0.1833923E+01  0.1701692E+04  0.2631176E+00  0.1173306E+03  0.1728297E+01  0.8677678E+04  0.2775815E+00
  0.3162450E+01  0.4511625E+04 -0.1570796E+01  0.1868775E+04 -0.1570794E+01  0.2733799E+04  0.2952448E-07  0.2226309E+03  0.1570800E+01  0.5374794E+03 -0.1570796E+01  0.2859593E-05  0.2493890E+01  0.6581345E+02  0.3042054E+01  0.5961641E+04 -0.9952066E-01  0.8714704E+02 -0.1670319E+01  0.1824224E+04  0.3042071E+01  0.1371853E+03  0.1595448E+01  0.9313661E+04 -0.1153360E+00  0.6581322E+02  0.9953112E-01  0.5961635E+04 -0.3042071E+01  0.8714664E+02  0.1670320E+01  0.1824220E+04  0.9951961E-01  0.1371855E+03  0.1546147E+01  0.9313653E+04  0.1153354E+00
  0.3343449E+01  0.4760053E+04 -0.1570796E+01  0.1971679E+04 -0.1570797E+01  0.2404635E+04  0.6726680E-08  0.2486619E+03  0.1570796E+01  0.6003220E+03 -0.1570796E+01  0.3263767E-05  0.2547797E+01  0.8745898E+02 -0.3067879E+01  0.6326896E+04  0.7371249E-01  0.9966736E+02 -0.1497084E+01  0.1933598E+04 -0.3067880E+01  0.1573468E+03  0.1789896E+01  0.9884501E+04  0.5666080E-01  0.8745876E+02 -0.7371581E-01  0.6326908E+04  0.3067881E+01  0.9966695E+02  0.1497079E+01  0.1933602E+04 -0.7371080E-01  0.1573463E+03  0.1351695E+01  0.9884503E+04 -0.5666054E-01
  0.3524449E+01  0.4977722E+04 -0.1570796E+01  0.2061839E+04 -0.1570797E+01  0.2097904E+04 -0.3126332E-07  0.2752512E+03  0.1570795E+01  0.6645143E+03 -0.1570796E+01  0.3700737E-05  0.2596992E+01  0.1136664E+03 -0.2885013E+01  0.6641627E+04  0.2565844E+00  0.1118424E+03 -0.1314204E+01  0.2027182E+04 -0.2885008E+01  0.1772526E+03  0.1997044E+01  0.1037640E+05  0.2384687E+00  0.1136657E+03 -0.2565825E+00  0.6641619E+04  0.2885006E+01  0.1118430E+03  0.1314205E+01  0.2027180E+04 -0.2565865E+00  0.1772517E+03  0.1144551E+01  0.1037640E+05 -0.2384691E+00
  0.3705448E+01  0.5162313E+04 -0.1570796E+01  0.2138304E+04 -0.1570795E+01  0.1815094E+04 -0.4475247E-08  0.3020518E+03  0.1570801E+01  0.7292195E+03 -0.1570796E+01  0.4168892E-05  0.2641703E+01  0.1446770E+03 -0.2692494E+01  0.6897498E+04  0.4490968E+00  0.1232386E+03 -0.1121706E+01  0.2102500E+04 -0.2692497E+01  0.1963174E+03  0.2217275E+01  0.1077630E+05  0.4301704E+00  0.1446766E+03 -0.4491010E+00  0.6897504E+04  0.2692496E+01  0.1232385E+03  0.1121702E+01  0.2102492E+04 -0.4490978E+00  0.1963176E+03  0.9243163E+00  0.1077632E+05 -0.4301715E+00
  0.3886448E+01  0.5312128E+04 -0.1570796E+01  0.2200357E+04 -0.1570796E+01  0.1557061E+04 -0.4507497E-07  0.3286776E+03  0.1570798E+01  0.7934971E+03 -0.1570796E+01  0.4665924E-05  0.2682220E+01  0.1805469E+03 -0.2490347E+01  0.7086998E+04  0.6512467E+00  0.1334134E+03 -0.9195474E+00  0.2157332E+04 -0.2490346E+01  0.2139882E+03  0.2451047E+01  0.1107248E+05  0.6318662E+00  0.1805473E+03 -0.6512437E+00  0.7086996E+04  0.2490346E+01  0.1334136E+03  0.9195486E+00  0.2157334E+04 -0.6512449E+00  0.2139887E+03  0.6905476E+00  0.1107247E+05 -0.6318676E+00
  0.4067448E+01  0.5426003E+04 -0.1570796E+01  0.2247527E+04 -0.1570797E+01  0.1324083E+04  0.5283308E-07  0.3547080E+03  0.1570792E+01  0.8563411E+03 -0.1570796E+01  0.5189114E-05  0.2718882E+01  0.2210914E+03 -0.2278558E+01  0.7203635E+04  0.8630348E+00  0.1419428E+03 -0.7077633E+00  0.2189820E+04 -0.2278555E+01  0.2297429E+03  0.2698813E+01  0.1125468E+05  0.8436837E+00  0.2210918E+03 -0.8630320E+00  0.7203643E+04  0.2278556E+01  0.1419428E+03  0.7077628E+00  0.2189813E+04 -0.8630347E+00  0.2297433E+03  0.4427770E+00  0.1125468E+05 -0.8436823E+00
  0.4248447E+01  0.5503316E+04 -0.1570796E+01  0.2279545E+04 -0.1570796E+01  0.1115906E+04  0.4174278E-07  0.3796987E+03  0.1570795E+01  0.9166733E+03 -0.1570796E+01  0.5735282E-05  0.2752030E+01  0.2658354E+03 -0.2057128E+01  0.7242164E+04  0.1084464E+01  0.1484413E+03 -0.4863324E+00  0.2198445E+04 -0.2057131E+01  0.2431562E+03  0.2961064E+01  0.1131474E+05  0.1065775E+01  0.2658359E+03 -0.1084463E+01  0.7242167E+04  0.2057129E+01  0.1484414E+03  0.4863309E+00  0.2198448E+04 -0.1084463E+01  0.2431571E+03  0.1805296E+00  0.1131473E+05 -0.1065775E+01
  0.4429447E+01  0.5543925E+04 -0.1570796E+01  0.2296365E+04 -0.1570796E+01  0.9318361E+03  0.2622554E-07  0.4031889E+03  0.1570799E+01  0.9733824E+03 -0.1570796E+01  0.6301090E-05  0.2782015E+01  0.3139633E+03 -0.1826066E+01  0.7198893E+04  0.1315531E+01  0.1525870E+03 -0.2552642E+00  0.2182181E+04 -0.1826061E+01  0.2539103E+03 -0.3044973E+01  0.1124684E+05  0.1298354E+01  0.3139635E+03 -0.1315529E+01  0.7198901E+04  0.1826061E+01  0.1525870E+03  0.2552625E+00  0.2182173E+04 -0.1315531E+01  0.2539101E+03 -0.9661803E-01  0.1124683E+05 -0.1298354E+01
Zone t="FKforce - beta =  45.000",I=    20,F=POINT
  0.9904544E+00  0.5311500E+03 -0.1570797E+01  0.5311503E+03 -0.1570792E+01  0.7083258E+04 -0.6443286E-09  0.3590329E+02  0.1570869E+01  0.3590326E+02 -0.1570796E+01  0.4898185E-06  0.1668355E+01  0.2243982E+00  0.1681458E+01  0.1507412E+04 -0.1460343E+01  0.5254899E+01 -0.3031154E+01  0.4649425E+03  0.1681247E+01  0.8217454E+01  0.1169190E+00  0.2354687E+04 -0.1461681E+01  0.2243932E+00  0.1460284E+01  0.1507412E+04 -0.1681252E+01  0.5254808E+01  0.3031101E+01  0.4649421E+03  0.1460333E+01  0.8213714E+01  0.3024612E+01  0.2354687E+04  0.1461679E+01
  0.1171454E+01  0.7284164E+03 -0.1570796E+01  0.7284156E+03 -0.1570800E+01  0.6804253E+04  0.3696545E-08  0.5077112E+02  0.1570828E+01  0.5077120E+02 -0.1570796E+01  0.6744718E-06  0.1706825E+01  0.6062616E+00  0.1724904E+01  0.2079987E+04 -0.1416282E+01  0.1003045E+02 -0.2987074E+01  0.6411202E+03  0.1725305E+01  0.1566769E+02  0.1638301E+00  0.3249089E+04 -0.1418157E+01  0.6061815E+00  0.1416106E+01  0.2079987E+04 -0.1725311E+01  0.1003030E+02  0.2987039E+01  0.6411210E+03  0.1416282E+01  0.1566830E+02  0.2977747E+01  0.3249092E+04  0.1418150E+01
  0.1352454E+01  0.9486992E+03 -0.1570796E+01  0.9486966E+03 -0.1570790E+01  0.6491523E+04  0.1299098E-08  0.6847639E+02  0.1570802E+01  0.6847649E+02 -0.1570796E+01  0.8842701E-06  0.1751353E+01  0.1411739E+01  0.1777024E+01  0.2726043E+04 -0.1364848E+01  0.1728995E+02 -0.2935665E+01  0.8394431E+03  0.1776744E+01  0.2700441E+02  0.2185396E+00  0.4258289E+04 -0.1367325E+01  0.1411710E+01  0.1364718E+01  0.2726044E+04 -0.1776747E+01  0.1728947E+02  0.2935649E+01  0.8394453E+03  0.1364845E+01  0.2700454E+02  0.2923046E+01  0.4258288E+04  0.1367325E+01
  0.1533453E+01  0.1187847E+04 -0.1570796E+01  0.1187847E+04 -0.1570806E+01  0.6150516E+04  0.1831160E-07  0.8913544E+02  0.1570778E+01  0.8913556E+02 -0.1570796E+01  0.1118205E-05  0.1801406E+01  0.2939512E+01  0.1835625E+01  0.3433726E+04 -0.1306034E+01  0.2755981E+02 -0.2876874E+01  0.1055944E+04  0.1835558E+01  0.4305600E+02  0.2812746E+00  0.5363740E+04 -0.1309191E+01  0.2939615E+01  0.1305989E+01  0.3433723E+04 -0.1835556E+01  0.2755991E+02  0.2876862E+01  0.1055943E+04  0.1306036E+01  0.4305661E+02  0.2860315E+01  0.5363741E+04  0.1309191E+01
  0.1714453E+01  0.1441447E+04 -0.1570796E+01  0.1441448E+04 -0.1570797E+01  0.5786904E+04 -0.2176019E-07  0.1128506E+03  0.1570802E+01  0.1128504E+03 -0.1570797E+01  0.1376005E-05  0.1856347E+01  0.5605803E+01  0.1901704E+01  0.4188599E+04 -0.1239841E+01  0.4128859E+02 -0.2810610E+01  0.1285745E+04  0.1901750E+01  0.6451282E+02  0.3521498E+00  0.6542918E+04 -0.1243738E+01  0.5605687E+01  0.1239885E+01  0.4188592E+04 -0.1901750E+01  0.4128952E+02  0.2810635E+01  0.1285750E+04  0.1239839E+01  0.6451354E+02  0.2789433E+01  0.6542923E+04  0.1243738E+01
  0.1895452E+01  0.1704914E+04 -0.1570796E+01  0.1704912E+04 -0.1570799E+01  0.5406465E+04 -0.1186412E-07  0.1396984E+03  0.1570795E+01  0.1396984E+03 -0.1570796E+01  0.1658293E-05  0.1915500E+01  0.9950486E+01  0.1975313E+01  0.4973491E+04 -0.1166274E+01  0.5877155E+02 -0.2737053E+01  0.1523071E+04  0.1975320E+01  0.9183737E+02  0.4310167E+00  0.7769030E+04 -0.1170946E+01  0.9950568E+01  0.1166244E+01  0.4973492E+04 -0.1975320E+01  0.5877171E+02  0.2737063E+01  0.1523065E+04  0.1166277E+01  0.9183942E+02  0.2710577E+01  0.7769030E+04  0.1170945E+01
  0.2076452E+01  0.1973610E+04 -0.1570796E+01  0.1973611E+04 -0.1570799E+01  0.5015080E+04  0.3216011E-07  0.1697186E+03  0.1570795E+01  0.1697187E+03 -0.1570796E+01  0.1966420E-05  0.1977837E+01  0.1663716E+02  0.2056250E+01  0.5768507E+04 -0.1085329E+01  0.8007356E+02 -0.2656132E+01  0.1761193E+04  0.2056269E+01  0.1251495E+03  0.5182227E+00  0.9010925E+04 -0.1090794E+01  0.1663704E+02  0.1085343E+01  0.5768506E+04 -0.2056263E+01  0.8007331E+02  0.2656128E+01  0.1761193E+04  0.1085325E+01  0.1251485E+03  0.2623361E+01  0.9010940E+04  0.1090795E+01
  0.2257452E+01  0.2242942E+04 -0.1570796E+01  0.2242944E+04 -0.1570793E+01  0.4618496E+04 -0.2733092E-07  0.2029033E+03  0.1570806E+01  0.2029034E+03 -0.1570796E+01  0.2302449E-05  0.2042347E+01  0.2642490E+02  0.2144590E+01  0.6551023E+04 -0.9970062E+00  0.1050005E+03 -0.2567810E+01  0.1992540E+04  0.2144586E+01  0.1641479E+03  0.6137080E+00  0.1023336E+05 -0.1003247E+01  0.2642483E+02  0.9970031E+00  0.6551031E+04 -0.2144588E+01  0.1049999E+03  0.2567812E+01  0.1992543E+04  0.9970079E+00  0.1641471E+03  0.2527896E+01  0.1023335E+05  0.1003248E+01
  0.2438451E+01  0.2508469E+04 -0.1570796E+01  0.2508469E+04 -0.1570795E+01  0.4222167E+04 -0.6696170E-07  0.2391855E+03  0.1570796E+01  0.2391855E+03 -0.1570796E+01  0.2668710E-05  0.2107839E+01  0.4012413E+02  0.2240283E+01  0.7296041E+04 -0.9013047E+00  0.1330378E+03 -0.2472099E+01  0.2208802E+04  0.2240289E+01  0.2080563E+03  0.7176592E+00  0.1139721E+05 -0.9082553E+00  0.4012379E+02  0.9013073E+00  0.7296044E+04 -0.2240288E+01  0.1330382E+03  0.2472096E+01  0.2208803E+04  0.9013042E+00  0.2080559E+03  0.2423932E+01  0.1139722E+05  0.9082549E+00
  0.2619451E+01  0.2765968E+04 -0.1570796E+01  0.2765969E+04 -0.1570798E+01  0.3831201E+04  0.4747819E-07  0.2784290E+03  0.1570800E+01  0.2784293E+03 -0.1570796E+01  0.3067609E-05  0.2173222E+01  0.5852194E+02  0.2343370E+01  0.7976609E+04 -0.7982284E+00  0.1633343E+03 -0.2369026E+01  0.2401145E+04  0.2343365E+01  0.2555662E+03  0.8302019E+00  0.1246037E+05 -0.8057555E+00  0.5852165E+02  0.7982225E+00  0.7976605E+04 -0.2343364E+01  0.1633346E+03  0.2369026E+01  0.2401148E+04  0.7982274E+00  0.2555664E+03  0.2311390E+01  0.1246037E+05  0.8057545E+00
  0.2800450E+01  0.3011527E+04 -0.1570796E+01  0.3011528E+04 -0.1570795E+01  0.3450204E+04  0.7712515E-08  0.3204205E+03  0.1570802E+01  0.3204202E+03 -0.1570796E+01  0.3501092E-05  0.2237450E+01  0.8227197E+02  0.2453822E+01  0.8564566E+04 -0.6877726E+00  0.1946892E+03 -0.2258572E+01  0.2560512E+04  0.2453820E+01  0.3048335E+03  0.9515242E+00  0.1337886E+05 -0.6956658E+00  0.8227203E+02  0.6877712E+00  0.8564564E+04 -0.2453820E+01  0.1946891E+03  0.2258570E+01  0.2560517E+04  0.6877701E+00  0.3048328E+03  0.2190073E+01  0.1337887E+05  0.6956655E+00
  0.2981450E+01  0.3241598E+04 -0.1570796E+01  0.3241598E+04 -0.1570797E+01  0.3083258E+04  0.4018095E-07  0.3648613E+03  0.1570796E+01  0.3648615E+03 -0.1570796E+01  0.3970371E-05  0.2299640E+01  0.1117632E+03  0.2571653E+01  0.9031554E+04 -0.5699409E+00  0.2255827E+03 -0.2140739E+01  0.2678004E+04  0.2571654E+01  0.3535348E+03  0.1081809E+01  0.1410838E+05 -0.5778716E+00  0.1117628E+03  0.5699388E+00  0.9031548E+04 -0.2571651E+01  0.2255828E+03  0.2140738E+01  0.2678001E+04  0.5699403E+00  0.3535349E+03  0.2059787E+01  0.1410839E+05  0.5778708E+00