VARIABLES="w (rad/s)"
Zone t="FKforce - beta =   0.000",I=     5,F=POINT
  0.3284966E+01
  0.3422728E+01
  0.3560490E+01
  0.3698252E+01
  0.3836014E+01
