VARIABLES="w (rad/s)"
"abs(F   1   1)" "angle(F   1   1)"
"abs(F   1   2)" "angle(F   1   2)"
"abs(F   1   3)" "angle(F   1   3)"
"abs(F   1   4)" "angle(F   1   4)"
"abs(F   1   5)" "angle(F   1   5)"
"abs(F   1   6)" "angle(F   1   6)"
"abs(F   2   7)" "angle(F   2   7)"
"abs(F   2   8)" "angle(F   2   8)"
"abs(F   2   9)" "angle(F   2   9)"
"abs(F   2  10)" "angle(F   2  10)"
"abs(F   2  11)" "angle(F   2  11)"
"abs(F   2  12)" "angle(F   2  12)"
"abs(F   3  13)" "angle(F   3  13)"
"abs(F   3  14)" "angle(F   3  14)"
"abs(F   3  15)" "angle(F   3  15)"
"abs(F   3  16)" "angle(F   3  16)"
"abs(F   3  17)" "angle(F   3  17)"
"abs(F   3  18)" "angle(F   3  18)"
Zone t="FKforce - beta =   0.000",I=    20,F=POINT
  0.9904544E+00  0.7511591E+03 -0.1570796E+01  0.7569194E-02  0.3141553E+01  0.7083252E+04 -0.5509110E-10  0.1177971E-02 -0.1546473E-03  0.5077487E+02 -0.1570795E+01  0.4549693E-12  0.3110353E+01  0.9514583E+02 -0.1414591E+01  0.6504301E-03 -0.4390347E+00  0.2703738E+04  0.1562068E+00  0.4015960E-02  0.8713780E-01  0.4223589E+04 -0.2976525E+01  0.4892840E-03 -0.3008292E+01  0.5612246E+02 -0.1727005E+01  0.1330688E-02  0.1993443E+00  0.2742437E+04 -0.1562070E+00  0.1156349E-03  0.2225934E+01  0.4283972E+04 -0.1628849E+00  0.1684029E-02 -0.7588693E-01
  0.1171454E+01  0.1030136E+04 -0.1570796E+01  0.9096220E-02 -0.6890555E-04  0.6804251E+04 -0.5952634E-09  0.2637489E-02  0.3141300E+01  0.7180116E+02 -0.1570796E+01  0.3876855E-11  0.3064540E+01  0.1321823E+03 -0.1352281E+01  0.2996139E-03  0.1448292E+01  0.2666707E+04  0.2185150E+00  0.5178130E-02  0.2846814E+00  0.4165900E+04 -0.2910598E+01  0.1977785E-02  0.2787224E+01  0.7818774E+02 -0.1789312E+01  0.8229318E-04  0.1297282E+01  0.2720255E+04 -0.2185154E+00  0.4995941E-02 -0.3026868E+01  0.4249416E+04 -0.2278889E+00  0.4517048E-03 -0.2583385E+01
  0.1352454E+01  0.1341661E+04 -0.1570796E+01  0.1188789E-01 -0.2292290E-03  0.6491525E+04 -0.4002742E-09  0.2807730E-02  0.1225160E-03  0.9684025E+02 -0.1570796E+01  0.1823480E-11 -0.7019697E-01  0.1747662E+03 -0.1279540E+01  0.1099055E-02  0.2687428E+01  0.2623995E+04  0.2912566E+00  0.2166128E-02  0.3084795E+01  0.4099441E+04 -0.2833571E+01  0.1931633E-02  0.5392870E+00  0.1037143E+03 -0.1862054E+01  0.6718236E-03 -0.2767093E+01  0.2694458E+04 -0.2912571E+00  0.3538723E-02 -0.1633896E-01  0.4209265E+04 -0.3038006E+00  0.1348935E-02  0.2528072E+01
  0.1533453E+01  0.1679871E+04 -0.1570796E+01  0.1353410E-01  0.3141449E+01  0.6150512E+04  0.8944495E-09  0.1066011E-03  0.3133176E+01  0.1260565E+03 -0.1570796E+01  0.8187229E-11  0.3120762E+01  0.2226000E+03 -0.1196365E+01  0.1306543E-02  0.2778434E+01  0.2575844E+04  0.3744316E+00  0.1362567E-02 -0.1710422E+00  0.4024597E+04 -0.2745413E+01  0.2320055E-02  0.1498249E+00  0.1325923E+03 -0.1945227E+01  0.1160583E-02  0.2269830E+00  0.2665109E+04 -0.3744313E+00  0.1926025E-02 -0.2966805E+01  0.4163628E+04 -0.3906317E+00  0.1804256E-02 -0.3163809E+00
  0.1714453E+01  0.2038512E+04 -0.1570796E+01  0.7382497E-02  0.3141538E+01  0.5786904E+04 -0.1526641E-08  0.1126328E-02 -0.3140896E+01  0.1595949E+03 -0.1570797E+01  0.2969491E-11 -0.9585915E-01  0.2753483E+03 -0.1102757E+01  0.2138081E-02  0.3029362E+01  0.2522515E+04  0.4680393E+00  0.1437192E-02  0.2702671E+01  0.3941830E+04 -0.2646089E+01  0.2290043E-02 -0.2080539E+00  0.1646950E+03 -0.2038836E+01  0.3157893E-03 -0.3073307E+01  0.2632253E+04 -0.4680396E+00  0.3548079E-03  0.2866581E+01  0.4112617E+04 -0.4883936E+00  0.2076407E-03  0.2502455E+01
  0.1895452E+01  0.2411111E+04 -0.1570796E+01  0.6273046E-02  0.3141355E+01  0.5406463E+04  0.3824193E-10  0.3060016E-03  0.3140076E+01  0.1975633E+03 -0.1570797E+01  0.3099009E-11 -0.1380060E+00  0.3326400E+03 -0.9987162E+00  0.1636187E-02 -0.2214709E+01  0.2464306E+04  0.5720810E+00  0.1438292E-02 -0.2313751E+01  0.3851636E+04 -0.2535559E+01  0.1699588E-02  0.9740396E+00  0.1998783E+03 -0.2142877E+01  0.1450948E-03  0.1101625E+00  0.2595968E+04 -0.5720805E+00  0.5811342E-03 -0.2897373E+01  0.4056352E+04 -0.5971034E+00  0.4308287E-03 -0.2607105E+01
  0.2076452E+01  0.2791101E+04 -0.1570796E+01  0.3251241E-02 -0.1012892E-02  0.5015081E+04 -0.1203365E-09  0.6972856E-03  0.2042538E-03  0.2400183E+03 -0.1570796E+01  0.4774932E-11 -0.3135640E+01  0.3940684E+03 -0.8842416E+00  0.8851817E-03 -0.1263311E+01  0.2401527E+04  0.6865556E+00  0.6154486E-03 -0.1443144E+01  0.3754549E+04 -0.2413776E+01  0.2317691E-02  0.2241890E+01  0.2379814E+03 -0.2257352E+01  0.4623209E-03  0.1102158E+01  0.2556323E+04 -0.6865551E+00  0.3029427E-03 -0.2872036E+01  0.3994985E+04 -0.7167750E+00  0.6842175E-03 -0.2655581E+01
  0.2257452E+01  0.3172006E+04 -0.1570796E+01  0.2587933E-02 -0.3139865E+01  0.4618496E+04 -0.1350656E-08  0.7954394E-03 -0.5744580E-03  0.2869486E+03 -0.1570796E+01  0.4112023E-11  0.9691763E-01  0.4591956E+03 -0.7593339E+00  0.4066656E-03  0.1909858E+01  0.2334532E+04  0.8114625E+00  0.2297009E-02  0.8154668E+00  0.3651164E+04 -0.2280688E+01  0.2175418E-02 -0.6118662E+00  0.2788242E+03 -0.2382258E+01  0.8649923E-03 -0.2652665E+01  0.2513414E+04 -0.8114619E+00  0.3259490E-02 -0.1855260E+01  0.3928666E+04 -0.8474293E+00  0.1356198E-02  0.2988756E+01
  0.2438451E+01  0.3547513E+04 -0.1570796E+01  0.4730227E-02 -0.1127772E-02  0.4222162E+04  0.2117564E-08  0.5977391E-03  0.1476481E-02  0.3382599E+03 -0.1570796E+01  0.1525269E-11 -0.4636476E+00  0.5275547E+03 -0.6239932E+00  0.1401416E-02 -0.1230449E+01  0.2263683E+04  0.9468027E+00  0.2464431E-02  0.1374219E+01  0.3542094E+04 -0.2136235E+01  0.2625946E-02 -0.1305954E+01  0.3222101E+03 -0.2517599E+01  0.6997354E-03 -0.9395425E+00  0.2467328E+04 -0.9468022E+00  0.2596486E-02 -0.3094493E+01  0.3857589E+04 -0.9890864E+00  0.1506361E-02  0.1148852E+01
  0.2619451E+01  0.3911675E+04 -0.1570796E+01  0.8759588E-02  0.1871238E-04  0.3831200E+04  0.3435334E-08  0.1199181E-02  0.3141284E+01  0.3937576E+03 -0.1570796E+01  0.4663326E-11 -0.3047836E-01  0.5986508E+03 -0.4782198E+00  0.9812181E-03  0.1748733E+01  0.2189355E+04  0.1092577E+01  0.2814011E-02 -0.1904914E+01  0.3428001E+04 -0.1980350E+01  0.1645986E-02 -0.5584304E+00  0.3679228E+03 -0.2663373E+01  0.3784479E-03 -0.2750373E+01  0.2418179E+04 -0.1092576E+01  0.2811275E-02 -0.1830313E+01  0.3781937E+04 -0.1141766E+01  0.8414059E-03  0.2885480E+01
  0.2800450E+01  0.4258940E+04 -0.1570796E+01  0.1496128E-01 -0.1272367E-03  0.3450207E+04  0.2604848E-08  0.5937200E-03  0.1385254E-02  0.4531420E+03 -0.1570796E+01  0.2006701E-11  0.2724631E+00  0.6719672E+03 -0.3220129E+00  0.9132523E-03 -0.2270610E+01  0.2111953E+04  0.1248783E+01  0.2435730E-02 -0.1930637E+01  0.3309571E+04 -0.1812956E+01  0.2568437E-02  0.9422594E+00  0.4157277E+03 -0.2819580E+01  0.7644816E-04  0.1774282E+01  0.2366076E+04 -0.1248783E+01  0.7125498E-03  0.2497648E+01  0.3701929E+04 -0.1305498E+01  0.1699706E-02  0.2290517E+01
  0.2981450E+01  0.4584314E+04 -0.1570796E+01  0.2240339E-02  0.3140613E+01  0.3083256E+04 -0.8940921E-09  0.4322047E-03  0.1290433E-02  0.5159919E+03 -0.1570796E+01  0.1033003E-11  0.1380060E+00  0.7469636E+03 -0.1553725E+00  0.1538823E-02  0.1775262E+01  0.2031892E+04  0.1415424E+01  0.5275478E-02  0.1503586E+01  0.3187496E+04 -0.1633973E+01  0.5848388E-03  0.3009122E+01  0.4653734E+03 -0.2986220E+01  0.1054548E-02  0.1553245E+01  0.2311157E+04 -0.1415424E+01  0.1298491E-02  0.1401330E+01  0.3617801E+04 -0.1480308E+01  0.8018342E-03  0.1521194E+01
  0.3162450E+01  0.4883340E+04 -0.1570796E+01  0.2392391E-03 -0.2896286E-02  0.2733801E+04  0.2266815E-08  0.8037283E-03 -0.3139886E+01  0.5817621E+03 -0.1570796E+01  0.6142312E-11  0.3109197E+01  0.8230868E+03  0.2170043E-01  0.1523926E-02  0.1585571E+01  0.1949588E+04  0.1592497E+01  0.4170551E-02 -0.1547042E+01  0.3062509E+04 -0.1443307E+01  0.2644393E-03 -0.1616117E+01  0.5165873E+03  0.3119892E+01  0.1141625E-03 -0.1514959E+01  0.2253559E+04 -0.1592497E+01  0.7300715E-04  0.1916237E+01  0.3529802E+04 -0.1666226E+01  0.1672962E-02  0.1343861E+01
  0.3343449E+01  0.5152248E+04 -0.1570796E+01  0.1846150E-02 -0.3141048E+01  0.2404633E+04  0.3636004E-08  0.1547720E-03  0.2785156E-01  0.6497836E+03 -0.1570796E+01  0.3166949E-11 -0.3671738E+00  0.8997664E+03  0.2092068E+00  0.6637028E-03 -0.1262752E+01  0.1865470E+04  0.1780003E+01  0.2546554E-02  0.1327905E+01  0.2935360E+04 -0.1240857E+01  0.6132439E-03  0.1675668E+01  0.5690808E+03  0.2932386E+01  0.4056469E-03  0.1135805E+01  0.2193427E+04 -0.1780003E+01  0.1601045E-02 -0.1819897E+01  0.3438200E+04 -0.1863285E+01  0.1395380E-02 -0.1543711E+01
  0.3524449E+01  0.5387835E+04 -0.1570796E+01  0.3325303E-02 -0.6296008E-03  0.2097906E+04  0.7466894E-09  0.5389100E-03 -0.8826982E-03  0.7192655E+03 -0.1570796E+01  0.2303562E-11 -0.1610919E+00  0.9764263E+03  0.4071464E+00  0.7018499E-03  0.2155436E+00  0.1779972E+04  0.1977943E+01  0.2343266E-02  0.3006919E+01  0.2806792E+04 -0.1026514E+01  0.2237582E-03  0.1000535E+01  0.6225476E+03  0.2734446E+01  0.2745428E-03  0.9202582E+00  0.2130933E+04 -0.1977942E+01  0.1484702E-02  0.2954344E+01  0.3343292E+04 -0.2071521E+01  0.4209558E-03 -0.1223162E+01
  0.3705448E+01  0.5587646E+04 -0.1570796E+01  0.9656908E-03 -0.3579900E-02  0.1815094E+04  0.5130989E-10  0.3168280E-04 -0.1311366E+00  0.7892997E+03 -0.1570796E+01  0.1449507E-11  0.1570796E+01  0.1052481E+04  0.6155201E+00  0.1129012E-02  0.1887411E+01  0.1693525E+04  0.2186316E+01  0.2869294E-02  0.1983424E+01  0.2677554E+04 -0.8001537E+00  0.1487914E-02  0.1726778E+01  0.6766651E+03  0.2526074E+01  0.3242797E-03  0.1243993E+01  0.2066243E+04 -0.2186316E+01  0.1973827E-02 -0.2683394E+01  0.3245370E+04 -0.2290970E+01  0.1266935E-02 -0.1633409E+01
  0.3886448E+01  0.5749812E+04 -0.1570796E+01  0.5112539E-02 -0.1060926E-02  0.1557063E+04  0.3999081E-08  0.4342145E-03 -0.3129419E+01  0.8588738E+03 -0.1570796E+01  0.1479022E-11  0.3103150E+01  0.1127346E+04  0.8343248E+00  0.4691333E-03  0.1468683E+00  0.1606555E+04  0.2405121E+01  0.1216256E-02  0.8414527E+00  0.2548398E+04 -0.5616541E+00  0.2890584E-02  0.1119469E+01  0.7310924E+03  0.2307267E+01  0.4019017E-03  0.1073389E+01  0.1999546E+04 -0.2405122E+01  0.1654561E-02 -0.1591458E+01  0.3144767E+04 -0.2521676E+01  0.4033716E-03  0.2332788E+01
  0.4067448E+01  0.5873055E+04 -0.1570796E+01  0.1716013E-02 -0.9723607E-02  0.1324080E+04 -0.4812480E-08  0.1521803E-02 -0.1588439E-02  0.9268961E+03 -0.1570796E+01  0.1757786E-11 -0.8884798E+00  0.1200440E+04  0.1063565E+01  0.2050572E-02 -0.3092240E+00  0.1519489E+04  0.2634361E+01  0.2438674E-02 -0.1673816E+01  0.2420050E+04 -0.3108730E+00  0.1429130E-03 -0.3278175E+00  0.7854726E+03  0.2078028E+01  0.6915680E-03  0.1675238E+00  0.1931041E+04 -0.2634362E+01  0.2007721E-02  0.1865043E+01  0.3041818E+04 -0.2763680E+01  0.1832274E-02 -0.2593401E+01
  0.4248447E+01  0.5956742E+04 -0.1570796E+01  0.7204971E-02 -0.3965731E-03  0.1115907E+04  0.8446032E-09  0.4728368E-04 -0.1087453E+00  0.9921977E+03 -0.1570796E+01  0.2431842E-11 -0.7936624E+00  0.1271185E+04  0.1303236E+01  0.1023085E-02  0.2794712E+01  0.1432733E+04  0.2874033E+01  0.1216792E-02 -0.1680267E-01  0.2293242E+04 -0.4767186E-01  0.2087186E-02  0.2135147E+00  0.8394410E+03  0.1838356E+01  0.4304353E-03  0.4598942E+00  0.1860927E+04 -0.2874033E+01  0.1668620E-02 -0.2858437E+01  0.2936872E+04 -0.3017028E+01  0.6901314E-03 -0.1386308E+01
  0.4429447E+01  0.6000693E+04 -0.1570796E+01  0.4580308E-03 -0.1744269E-01  0.9318350E+03  0.5177152E-08  0.2127546E-02  0.3140865E+01  0.1053580E+04 -0.1570796E+01  0.4656934E-11  0.3013074E+01  0.1339020E+04  0.1553343E+01  0.6390373E-03  0.1478861E-01  0.1346683E+04  0.3124139E+01  0.2370273E-02  0.1919012E-02  0.2168669E+04  0.2280976E+00  0.3158142E-03 -0.1745315E+01  0.8926163E+03  0.1588250E+01  0.3449377E-04 -0.2418856E+01  0.1789423E+04 -0.3124139E+01  0.5923637E-04 -0.2016021E+01  0.2830290E+04  0.3001414E+01  0.6503121E-03  0.2851962E+01
