 VARIABLES="Time (s)"
"IRF    1"
"IRF    2"
"IRF    3"
"IRF    4"
"IRF    5"
"IRF    6"
"IRF    7"
"IRF    8"
"IRF    9"
"IRF   10"
"IRF   11"
"IRF   12"
"IRF   13"
"IRF   14"
"IRF   15"
"IRF   16"
"IRF   17"
"IRF   18"
Zone t="beta  0.0000000E+00",I=   199,F=POINT
 -0.9800000E+01 -0.2289746E+03  0.1331534E-02  0.2222659E+02 -0.2940980E-03 -0.3737393E+02 -0.3372873E-12  0.2877489E+02  0.1975560E-03  0.3694860E+02  0.4976401E-03 -0.4669671E+02 -0.5662063E-03  0.3362286E+02 -0.1151731E-03  0.4260083E+02  0.2154184E-03  0.8247259E+02 -0.1122801E-06
 -0.9700000E+01 -0.1876713E+03  0.1537682E-02  0.7506245E+01 -0.2258920E-03 -0.3076482E+02 -0.1785197E-12  0.1846435E+02  0.2564631E-03  0.3487211E+02  0.3240017E-03 -0.4739544E+02 -0.5262239E-03  0.2545724E+02 -0.1020848E-03  0.4397466E+02  0.2400081E-03  0.8072876E+02 -0.1664391E-04
 -0.9600000E+01 -0.1131986E+03  0.1756468E-02 -0.5498386E+01 -0.1257400E-03 -0.1819802E+02  0.2985383E-13  0.3598396E+01  0.2794502E-03  0.2925245E+02  0.1037799E-03 -0.4430500E+02 -0.4487846E-03  0.1163835E+02 -0.8456709E-04  0.3681365E+02  0.2561277E-03  0.6297249E+02 -0.4115394E-04
 -0.9500000E+01 -0.1935432E+02  0.1967200E-02 -0.1716090E+02 -0.4488731E-05 -0.1950959E+01  0.2479667E-12 -0.1310669E+02  0.2613476E-03  0.2003665E+02 -0.1449459E-03 -0.3630346E+02 -0.3400818E-03 -0.5350118E+01 -0.6600236E-04  0.2092975E+02  0.2661917E-03  0.3009074E+02 -0.7189227E-04
 -0.9400001E+01  0.7578446E+02  0.2142307E-02 -0.2825043E+02  0.1243933E-03  0.1489286E+02  0.4344670E-12 -0.2845482E+02  0.2029884E-03  0.7816444E+01 -0.3997050E-03 -0.2309186E+02 -0.2096526E-03 -0.2230687E+02 -0.4985291E-04 -0.2188823E+01  0.2722740E-03 -0.1407100E+02 -0.1065034E-03
 -0.9300000E+01  0.1532794E+03  0.2250741E-02 -0.3977317E+02  0.2468665E-03  0.2902356E+02  0.5531880E-12 -0.3939148E+02  0.1111700E-03 -0.6255929E+01 -0.6362491E-03 -0.5300487E+01 -0.6908071E-04 -0.3591505E+02 -0.3901193E-04 -0.2959788E+02  0.2759903E-03 -0.6333914E+02 -0.1420777E-03
 -0.9200000E+01  0.1969989E+03  0.2262471E-02 -0.5274766E+02  0.3503539E-03  0.3754409E+02  0.5789537E-12 -0.4360994E+02 -0.2282483E-05 -0.2065956E+02 -0.8314134E-03  0.1557851E+02  0.6962643E-04 -0.4338657E+02 -0.3523900E-04 -0.5741083E+02  0.2784620E-03 -0.1103203E+03 -0.1752724E-03
 -0.9100000E+01  0.1969353E+03  0.2153369E-02 -0.6797636E+02  0.4254592E-03  0.3856024E+02  0.5015797E-12 -0.4003993E+02 -0.1222167E-03 -0.3378639E+02 -0.9659032E-03  0.3744406E+02  0.1957162E-03 -0.4302985E+02 -0.3878655E-04 -0.8151083E+02  0.2803656E-03 -0.1477826E+03 -0.2025178E-03
 -0.9000000E+01  0.1513732E+03  0.1909693E-02 -0.8584551E+02  0.4670955E-03  0.3158695E+02  0.3274096E-12 -0.2910685E+02 -0.2323536E-03 -0.4423904E+02 -0.1026568E-02  0.5795155E+02  0.3011623E-03 -0.3462163E+02 -0.4828487E-04 -0.9834349E+02  0.2820048E-03 -0.1700708E+03 -0.2203085E-03
 -0.8900001E+01  0.6756082E+02  0.1531387E-02 -0.1061977E+03  0.4748704E-03  0.1769848E+02  0.7820127E-13 -0.1270414E+02 -0.3176391E-03 -0.5110618E+02 -0.1007920E-02  0.7495361E+02  0.3816372E-03 -0.1950632E+02 -0.6092171E-04 -0.1056162E+03  0.2833937E-03 -0.1742444E+03 -0.2255473E-03
 -0.8800000E+01 -0.3940928E+02  0.1033510E-02 -0.1283094E+03  0.4527133E-03 -0.6286882E+00 -0.2124704E-12  0.6126348E+01 -0.3664152E-03 -0.5414502E+02 -0.9126936E-03  0.8690743E+02  0.4368462E-03 -0.3900141E+00 -0.7289528E-04 -0.1027865E+03  0.2843213E-03 -0.1607430E+03 -0.2159087E-03
 -0.8700000E+01 -0.1492563E+03  0.4455823E-03 -0.1509763E+03  0.4078423E-03 -0.1994881E+02 -0.5045824E-12  0.2375510E+02 -0.3720594E-03 -0.5384571E+02 -0.7514294E-03  0.9318949E+02  0.4701350E-03  0.1913781E+02 -0.8007133E-04 -0.9121653E+02  0.2843835E-03 -0.1333997E+03 -0.1901685E-03
 -0.8600000E+01 -0.2403180E+03 -0.1912971E-03 -0.1726964E+03  0.3492885E-03 -0.3648985E+02 -0.7579534E-12  0.3665879E+02 -0.3338871E-03 -0.5134474E+02 -0.5411507E-03  0.9422627E+02  0.4874466E-03  0.3527441E+02 -0.7874165E-04 -0.7396405E+02  0.2830011E-03 -0.9879623E+02 -0.1484440E-03
 -0.8500000E+01 -0.2937540E+03 -0.8291093E-03 -0.1919205E+03  0.2862446E-03 -0.4688256E+02 -0.9383664E-12  0.4212407E+02 -0.2571686E-03 -0.4821403E+02 -0.3033423E-03  0.9143375E+02  0.4958179E-03  0.4474109E+02 -0.6635288E-04 -0.5523135E+02  0.2794095E-03 -0.6505206E+02 -0.9230161E-04
 -0.8400001E+01 -0.2973590E+03 -0.1418647E-02 -0.2073187E+03  0.2265470E-03 -0.4883829E+02 -0.1022520E-11  0.3881404E+02 -0.1522966E-03 -0.4615225E+02 -0.6152795E-04  0.8695264E+02  0.5016866E-03  0.4544663E+02 -0.4208043E-04 -0.3956821E+02  0.2726667E-03 -0.4026477E+02 -0.2471165E-04
 -0.8300000E+01 -0.2482015E+03 -0.1915612E-02 -0.2180192E+03  0.1755240E-03 -0.4163720E+02 -0.1001081E-11  0.2708232E+02 -0.3322650E-04 -0.4664042E+02  0.1612891E-03  0.8323042E+02  0.5093387E-03  0.3694060E+02 -0.7138225E-05 -0.3097963E+02  0.2616709E-03 -0.3090092E+02  0.5017193E-04
 -0.8200000E+01 -0.1535457E+03 -0.2285938E-02 -0.2237622E+03  0.1354099E-03 -0.2632789E+02 -0.8793699E-12  0.8967420E+01  0.8454128E-04 -0.5062994E+02  0.3449648E-03  0.8253264E+02  0.5198052E-03  0.2056533E+02  0.3524029E-04 -0.3210783E+02  0.2452245E-03 -0.4044743E+02  0.1273615E-03
 -0.8100000E+01 -0.2979766E+02 -0.2509743E-02 -0.2249439E+03  0.1053730E-03 -0.5586004E+01 -0.6757347E-12 -0.1214893E+02  0.1861535E-03 -0.5832239E+02  0.4741380E-03  0.8646753E+02  0.5304271E-03 -0.7372573E+00  0.8016556E-04 -0.4364587E+02  0.2221364E-03 -0.6858728E+02  0.2014951E-03
 -0.8000000E+01  0.1003657E+03 -0.2583182E-02 -0.2225329E+03  0.8212117E-04  0.1674976E+02 -0.4179494E-12 -0.3216018E+02  0.2594337E-03 -0.6908729E+02  0.5395375E-03  0.9562185E+02  0.5352200E-03 -0.2294014E+02  0.1217594E-03 -0.6411848E+02  0.1913696E-03 -0.1111027E+03  0.2673387E-03
 -0.7900000E+01  0.2122262E+03 -0.2518001E-02 -0.2178746E+03  0.6093509E-04  0.3638931E+02 -0.1384070E-12 -0.4701920E+02  0.2964576E-03 -0.8154662E+02  0.5385726E-03  0.1093925E+03  0.5259927E-03 -0.4167646E+02  0.1540237E-03 -0.9007552E+02  0.1522239E-03 -0.1605306E+03  0.3202618E-03
 -0.7800000E+01  0.2838047E+03 -0.2338933E-02 -0.2124157E+03  0.3690786E-04  0.4941740E+02  0.1310607E-12 -0.5354087E+02  0.2944747E-03 -0.9380722E+02  0.4752346E-03  0.1260420E+03  0.4940444E-03 -0.5308316E+02  0.1717891E-03 -0.1166851E+03  0.1045276E-03 -0.2074912E+03  0.3566495E-03
 -0.7700000E+01  0.3002614E+03 -0.2079399E-02 -0.2074004E+03  0.6147971E-05  0.5307314E+02  0.3637953E-12 -0.5005993E+02  0.2560594E-03 -0.1038034E+03  0.3593518E-03  0.1429822E+03  0.4321492E-03 -0.5457443E+02  0.1715836E-03 -0.1386169E+03  0.4882694E-04 -0.2424327E+03  0.3741804E-03
 -0.7600000E+01  0.2570941E+03 -0.1776253E-02 -0.2036012E+03 -0.3328458E-04  0.4633792E+02  0.5416330E-12 -0.3681715E+02  0.1885036E-03 -0.1096921E+03  0.2053339E-03  0.1572436E+03  0.3364430E-03 -0.4540194E+02  0.1522827E-03 -0.1510646E+03 -0.1346874E-04 -0.2574965E+03  0.3719757E-03
 -0.7500000E+01  0.1613856E+03 -0.1464483E-02 -0.2011346E+03 -0.8087632E-04  0.3019737E+02  0.6564473E-12 -0.1598225E+02  0.1025766E-03 -0.1102129E+03  0.3056963E-04  0.1660276E+03  0.2078599E-03 -0.2687424E+02  0.1154257E-03 -0.1507058E+03 -0.7999667E-04 -0.2481183E+03  0.3505947E-03
 -0.7400000E+01  0.3085834E+02 -0.1172654E-02 -0.1994001E+03 -0.1336741E-03  0.7524738E+01  0.7098100E-12  0.8704714E+01  0.1085498E-04 -0.1049538E+03 -0.1463771E-03  0.1672605E+03  0.5279402E-04 -0.2185403E+01  0.6513404E-04 -0.1364093E+03 -0.1474501E-03 -0.2140506E+03  0.3119111E-03
 -0.7300000E+01 -0.1092194E+03 -0.9198859E-03 -0.1971674E+03 -0.1867896E-03 -0.1741338E+02  0.7109916E-12  0.3261107E+02 -0.7410962E-04 -0.9445718E+02 -0.3075612E-03  0.1600166E+03 -0.1171894E-03  0.2413226E+02  0.7629520E-05 -0.1095464E+03 -0.2116871E-03 -0.1595903E+03  0.2588954E-03
 -0.7200000E+01 -0.2307201E+03 -0.7146668E-03 -0.1927934E+03 -0.2342926E-03 -0.3974169E+02  0.6738237E-12  0.5109200E+02 -0.1415120E-03 -0.8014503E+02 -0.4373298E-03  0.1447390E+03 -0.2866196E-03  0.4703767E+02 -0.4958734E-04 -0.7382972E+02 -0.2679667E-03 -0.9293028E+02  0.1953441E-03
 -0.7100000E+01 -0.3080736E+03 -0.5556464E-03 -0.1845331E+03 -0.2703018E-03 -0.5490945E+02  0.6131569E-12  0.6040387E+02 -0.1836655E-03 -0.6407045E+02 -0.5237139E-03  0.1232012E+03 -0.4381989E-03  0.6194556E+02 -0.9878203E-04 -0.3468334E+02 -0.3112993E-03 -0.2471892E+02  0.1255886E-03
 -0.7000000E+01 -0.3234011E+03 -0.4340331E-03 -0.1708865E+03 -0.2900696E-03 -0.5959607E+02  0.5416276E-12  0.5847242E+02 -0.1968394E-03 -0.4853422E+02 -0.5594373E-03  0.9820147E+02 -0.5553897E-03  0.6564010E+02 -0.1330993E-03  0.1740910E+01 -0.3369082E-03  0.3391057E+02  0.5421355E-04
 -0.6900000E+01 -0.2703393E+03 -0.3370856E-03 -0.1509193E+03 -0.2908516E-03 -0.5241115E+02  0.4673873E-12  0.4536197E+02 -0.1814786E-03 -0.3564311E+02 -0.5424754E-03  0.7305424E+02 -0.6250850E-03  0.5696161E+02 -0.1475786E-03  0.2972874E+02 -0.3407631E-03  0.7348663E+02 -0.1421098E-04
 -0.6800000E+01 -0.1557398E+03 -0.2518858E-03 -0.1244848E+03 -0.2724075E-03 -0.3424154E+02  0.3931793E-12  0.2333959E+02 -0.1418053E-03 -0.2689186E+02 -0.4760966E-03  0.5096043E+02 -0.6398972E-03  0.3712081E+02 -0.1399084E-03  0.4513586E+02 -0.3201451E-03  0.8811549E+02 -0.7537411E-04
 -0.6700000E+01  0.1146258E+01 -0.1686286E-03 -0.9230945E+02 -0.2370466E-03 -0.8167022E+01  0.3168838E-12 -0.3492549E+01 -0.8490977E-04 -0.2285093E+02 -0.3683892E-03  0.3438034E+02 -0.5996495E-03  0.9564285E+01 -0.1108063E-03  0.4625273E+02 -0.2741791E-03  0.7676797E+02 -0.1254633E-03
 -0.6600000E+01  0.1719480E+03 -0.8277793E-04 -0.5590770E+02 -0.1892237E-03  0.2105645E+02  0.2333018E-12 -0.2993722E+02 -0.1949601E-04 -0.2302592E+02 -0.2313035E-03  0.2453015E+02 -0.5117690E-03 -0.2060001E+02 -0.6395642E-04  0.3423597E+02 -0.2042672E-03  0.4367942E+02 -0.1614006E-03
 -0.6500000E+01  0.3243755E+03  0.4348817E-05 -0.1734936E+02 -0.1347753E-03  0.4786207E+02  0.1367266E-12 -0.5068492E+02  0.4550830E-04 -0.2592526E+02 -0.7928055E-04  0.2111233E+02 -0.3904494E-03 -0.4752619E+02 -0.5510646E-05  0.1299488E+02 -0.1143430E-03 -0.2267045E+01 -0.1810835E-03
 -0.6400000E+01  0.4284052E+03  0.8662384E-04  0.2109357E+02 -0.7994156E-04  0.6693144E+02  0.2366766E-13 -0.6135619E+02  0.1022543E-03 -0.2932667E+02  0.7239716E-04  0.2233275E+02 -0.2546704E-03 -0.6573830E+02  0.5677688E-04 -0.1146387E+02 -0.1087758E-04 -0.4909018E+02 -0.1836199E-03
 -0.6300000E+01  0.4622495E+03  0.1555303E-03  0.5734727E+02 -0.3036639E-04  0.7424526E+02 -0.1049288E-12 -0.5939612E+02  0.1449954E-03 -0.3069886E+02  0.2093778E-03  0.2521687E+02 -0.1253457E-03 -0.7121585E+02  0.1146529E-03 -0.3213463E+02  0.9740620E-04 -0.8394221E+02 -0.1695283E-03
 -0.6200000E+01  0.4169673E+03  0.2033898E-03  0.8990878E+02  0.9743601E-05  0.6792268E+02 -0.2424871E-12 -0.4464495E+02  0.1706984E-03 -0.2770322E+02  0.3199155E-03  0.2617440E+02 -0.2205145E-04 -0.6224339E+02  0.1605382E-03 -0.4235316E+02  0.2001384E-03 -0.9560480E+02 -0.1408653E-03
 -0.6100000E+01  0.2987436E+03  0.2266575E-03  0.1181224E+03  0.3815749E-04  0.4867745E+02 -0.3769771E-12 -0.1945913E+02  0.1791721E-03 -0.1867608E+02  0.3962633E-03  0.2170643E+02  0.4013965E-04 -0.3985394E+02  0.1885958E-03 -0.3713566E+02  0.2862083E-03 -0.7679070E+02 -0.1012285E-03
 -0.6000000E+01  0.1282923E+03  0.2284915E-03  0.1422904E+03  0.5476896E-04  0.1978385E+02 -0.4924753E-12  0.1165712E+02  0.1727348E-03 -0.2999173E+01  0.4355698E-03  0.9124705E+01  0.5317642E-04 -0.7757686E+01  0.1955333E-03 -0.1425609E+02  0.3449019E-03 -0.2579099E+02 -0.5559249E-04
 -0.5900000E+01 -0.6260299E+02  0.2199147E-03  0.1636018E+03  0.6135165E-04 -0.1345767E+02 -0.5718615E-12  0.4285698E+02  0.1555018E-03  0.1871937E+02  0.4401489E-03 -0.1285804E+02  0.1745920E-04  0.2825080E+02  0.1810170E-03  0.2516430E+02  0.3671733E-03  0.5288634E+02 -0.9941576E-05
 -0.5800000E+01 -0.2368846E+03  0.2191703E-03  0.1838753E+03  0.6098642E-04 -0.4467564E+02 -0.6001325E-12  0.6804770E+02  0.1324417E-03  0.4470047E+02  0.4170381E-03 -0.4379474E+02 -0.5809889E-04  0.6131929E+02  0.1476416E-03  0.7668419E+02  0.3468959E-03  0.1490479E+03  0.2929754E-04
 -0.5700000E+01 -0.3592634E+03  0.2491873E-03  0.2051661E+03  0.5729076E-04 -0.6762778E+02 -0.5676732E-12  0.8207577E+02  0.1083706E-03  0.7227646E+02  0.3768761E-03 -0.8149181E+02 -0.1574396E-03  0.8481602E+02  0.1004648E-03  0.1332206E+03  0.2819278E-03  0.2484822E+03  0.5599465E-04
 -0.5600000E+01 -0.4032393E+03  0.3335043E-03  0.2293061E+03  0.5360833E-04 -0.7743001E+02 -0.4728251E-12  0.8177503E+02  0.8705944E-04  0.9836015E+02  0.3322202E-03 -0.1223403E+03 -0.2599542E-03  0.9362919E+02  0.4618547E-04  0.1862676E+03  0.1748305E-03  0.3354805E+03  0.6514627E-04
 -0.5500000E+01 -0.3566944E+03  0.4912850E-03  0.2574644E+03  0.5231984E-04 -0.7157130E+02 -0.3231793E-12  0.6666239E+02  0.7060252E-04  0.1200141E+03  0.2955268E-03 -0.1619385E+03 -0.3439243E-03  0.8523621E+02 -0.7900065E-05  0.2274563E+03  0.3308939E-04  0.3957802E+03  0.5369719E-04
 -0.5400000E+01 -0.2249152E+03  0.7323528E-03  0.2898173E+03  0.5440499E-04 -0.5050935E+02 -0.1352699E-12  0.3913343E+02  0.5914249E-04  0.1350099E+03  0.2770716E-03 -0.1958911E+03 -0.3902394E-03  0.6032741E+02 -0.5500093E-04  0.2501675E+03 -0.1312574E-03  0.4193795E+03  0.2121817E-04
 -0.5300000E+01 -0.3034400E+02  0.1053204E-02  0.3254008E+03  0.5933244E-04 -0.1771382E+02  0.6735763E-13  0.4103359E+01  0.5098890E-04  0.1422727E+03  0.2831517E-03 -0.2206391E+03 -0.3857730E-03  0.2283990E+02 -0.8981390E-04  0.2508853E+03 -0.3025998E-03  0.4026660E+03 -0.2968819E-04
 -0.5200000E+01  0.1910646E+03  0.1434888E-02  0.3621843E+03  0.6528317E-04  0.2087918E+02  0.2574448E-12 -0.3186041E+02  0.4309338E-04  0.1421112E+03  0.3148399E-03 -0.2341527E+03 -0.3258375E-03 -0.2063181E+02 -0.1092387E-03  0.2300319E+03 -0.4632855E-03  0.3494382E+03 -0.9336178E-04
 -0.5100000E+01  0.3962557E+03  0.1843333E-02  0.3973514E+03  0.6965076E-04  0.5791201E+02  0.4081228E-12 -0.6176202E+02  0.3179199E-04  0.1361906E+03  0.3675504E-03 -0.2363552E+03 -0.2152767E-03 -0.6196569E+02 -0.1127174E-03  0.1920755E+03 -0.5955590E-03  0.2705368E+03 -0.1615020E-03
 -0.5000000E+01  0.5432186E+03  0.2232349E-02  0.4277614E+03  0.6970488E-04  0.8598093E+02  0.4971332E-12 -0.7953271E+02  0.1367484E-04  0.1272326E+03  0.4315098E-03 -0.2291746E+03 -0.6796339E-04 -0.9299797E+02 -0.1021533E-03  0.1448729E+03 -0.6836789E-03  0.1821105E+03 -0.2240317E-03
 -0.4900000E+01  0.5992829E+03  0.2549055E-02  0.4504920E+03  0.6327787E-04  0.9908057E+02  0.5104256E-12 -0.8125729E+02 -0.1357349E-04  0.1184979E+03  0.4931327E-03 -0.2162036E+03  0.9525249E-04 -0.1070959E+03 -0.8143755E-04  0.9831597E+02 -0.7159565E-03  0.1027548E+03 -0.2703343E-03
 -0.4800000E+01  0.5479795E+03  0.2740999E-02  0.4633745E+03  0.4932955E-04  0.9384254E+02  0.4444794E-12 -0.6602610E+02 -0.5051410E-04  0.1131440E+03  0.5371131E-03 -0.2020242E+03  0.2498524E-03 -0.1005228E+03 -0.5566769E-04  0.6251400E+02 -0.6864140E-03  0.5002454E+02 -0.2907242E-03
 -0.4700000E+01  0.3930782E+03  0.2763962E-02  0.4654043E+03  0.2827610E-04  0.7032170E+02  0.3069512E-12 -0.3623386E+02 -0.9559706E-04  0.1135735E+03  0.5489413E-03 -0.1913035E+03  0.3716892E-03 -0.7332545E+02 -0.3020077E-04  0.4582554E+02 -0.5958271E-03  0.3693983E+02 -0.2779524E-03
 -0.4600000E+01  0.1588546E+03  0.2589210E-02  0.4569471E+03  0.2017524E-05  0.3215296E+02  0.1155103E-12  0.2755720E+01 -0.1451792E-03  0.1209084E+03  0.5174607E-03 -0.1878448E+03  0.4410995E-03 -0.2955006E+02 -0.9701805E-05  0.5311110E+02 -0.4519445E-03  0.6915659E+02 -0.2285280E-03
 -0.4500000E+01 -0.1136367E+03  0.2209002E-02  0.4396866E+03 -0.2633978E-04 -0.1398024E+02 -0.1049182E-12  0.4354092E+02 -0.1939274E-03  0.1346934E+03  0.4370337E-03 -0.1937678E+03  0.4464079E-03  0.2329250E+02  0.2649874E-05  0.8455054E+02 -0.2688175E-03  0.1433755E+03 -0.1436301E-03
 -0.4400000E+01 -0.3737512E+03  0.1639344E-02  0.4163115E+03 -0.5301329E-04 -0.5949514E+02 -0.3260501E-12  0.7804829E+02 -0.2355515E-03  0.1528967E+03  0.3089523E-03 -0.2089895E+03  0.3862063E-03  0.7545140E+02  0.5663425E-05  0.1352851E+03 -0.6525568E-04  0.2473682E+03 -0.2943486E-04
 -0.4300000E+01 -0.5706919E+03  0.9194562E-03  0.3899901E+03 -0.7421564E-04 -0.9548539E+02 -0.5205673E-12  0.9908600E+02 -0.2637623E-03  0.1722273E+03  0.1418127E-03 -0.2311215E+03  0.2699979E-03  0.1166565E+03  0.2664441E-06  0.1959970E+03  0.1373986E-03  0.3616997E+03  0.1032497E-03
 -0.4200000E+01 -0.6634669E+03  0.1078465E-03  0.3637175E+03 -0.8683786E-04 -0.1144395E+03 -0.6661495E-12  0.1017883E+03 -0.2732992E-03  0.1887086E+03 -0.4926604E-04 -0.2558172E+03  0.1170462E-03  0.1380426E+03 -0.1075532E-04  0.2543804E+03  0.3179233E-03  0.4629436E+03  0.2400455E-03
 -0.4100000E+01 -0.6294590E+03 -0.7245071E-03  0.3396758E+03 -0.8901364E-04 -0.1117777E+03 -0.7485246E-12  0.8466938E+02 -0.2608692E-03  0.1984195E+03 -0.2445150E-03 -0.2775225E+03 -0.4643092E-04  0.1339247E+03 -0.2335875E-04  0.2972798E+03  0.4579295E-03  0.5278646E+03  0.3646671E-03
 -0.4000000E+01 -0.4698806E+03 -0.1502911E-02  0.3187139E+03 -0.8045317E-04 -0.8690192E+02 -0.7630422E-12  0.5005786E+02 -0.2258397E-03  0.1982556E+03 -0.4222188E-03 -0.2905004E+03 -0.1913086E-03  0.1030867E+03 -0.3307621E-04  0.3131372E+03  0.5442540E-03  0.5378505E+03  0.4609819E-03
 -0.3900000E+01 -0.2108804E+03 -0.2158414E-02  0.3000742E+03 -0.6248767E-04 -0.4353224E+02 -0.7145670E-12  0.3807780E+01 -0.1705631E-03  0.1865697E+03 -0.5618787E-03 -0.2899399E+03 -0.2902170E-03  0.4931384E+02 -0.3593193E-04  0.2943133E+03  0.5706887E-03  0.4827905E+03  0.5152033E-03
 -0.3800000E+01  0.1001508E+03 -0.2636478E-02  0.2814267E+03 -0.3781943E-04  0.1077376E+02 -0.6157711E-12 -0.4569077E+02 -0.1002639E-03  0.1635538E+03 -0.6473212E-03 -0.2729318E+03 -0.3220635E-03 -0.1897453E+02 -0.2927777E-04  0.2388398E+03  0.5387595E-03  0.3636319E+03  0.5178917E-03
 -0.3700000E+01  0.4026163E+03 -0.2903594E-02  0.2592350E+03 -0.1003121E-04  0.6586752E+02 -0.4842227E-12 -0.8903816E+02 -0.2249000E-04  0.1312830E+03 -0.6692699E-03 -0.2391205E+03 -0.2756848E-03 -0.8997636E+02 -0.1239743E-04  0.1512448E+03  0.4574320E-03  0.1930722E+03  0.4654722E-03
 -0.3600000E+01  0.6338044E+03 -0.2950862E-02  0.2293858E+03  0.1705030E-04  0.1108272E+03 -0.3388426E-12 -0.1176185E+03  0.5381511E-04  0.9339068E+02 -0.6269449E-03 -0.1908836E+03 -0.1520099E-03 -0.1504664E+03  0.1323240E-04  0.4222788E+02  0.3417542E-03 -0.5883390E+01  0.3610175E-03
 -0.3500000E+01  0.7410524E+03 -0.2793967E-02  0.1879970E+03  0.4000969E-04  0.1360283E+03 -0.1964254E-12 -0.1253169E+03  0.1194891E-03  0.5442725E+02 -0.5284043E-03 -0.1329859E+03  0.3564826E-04 -0.1881473E+03  0.4407877E-04 -0.7282533E+02  0.2106129E-03 -0.2033619E+03  0.2141469E-03
 -0.3400000E+01  0.6927095E+03 -0.2469686E-02  0.1322369E+03  0.5639569E-04  0.1350869E+03 -0.6887255E-13 -0.1098306E+03  0.1664190E-03  0.1900780E+02 -0.3895344E-03 -0.7175230E+02  0.2632512E-03 -0.1939851E+03  0.7507273E-04 -0.1763070E+03  0.8392966E-04 -0.3675818E+03  0.4002122E-04
 -0.3300000E+01  0.4857138E+03 -0.2029465E-02  0.6100483E+02  0.6507109E-04  0.1062974E+03  0.3838149E-13 -0.7329603E+02  0.1887142E-03 -0.9088831E+01 -0.2318195E-03 -0.1389915E+02  0.4994325E-03 -0.1641108E+03  0.1004329E-03 -0.2514553E+03 -0.2029992E-04 -0.4705488E+03 -0.1424631E-03
 -0.3200000E+01  0.1481231E+03 -0.1531227E-02 -0.2467879E+02  0.6629904E-04  0.5326410E+02  0.1264876E-12 -0.2208329E+02  0.1836103E-03 -0.2770058E+02 -0.7920928E-04  0.3476187E+02  0.7101005E-03 -0.1009120E+03  0.1146567E-03 -0.2855087E+03 -0.8866462E-04 -0.4934982E+03 -0.3130381E-03
 -0.3100000E+01 -0.2642185E+03 -0.1030704E-02 -0.1216782E+03  0.6156286E-04 -0.1544345E+02  0.2018971E-12  0.3424371E+02  0.1519686E-03 -0.3678062E+02  0.4543470E-04  0.7050000E+02  0.8635579E-03 -0.1307545E+02  0.1135160E-03 -0.2724106E+03 -0.1142908E-03 -0.4311369E+03 -0.4526736E-03
 -0.3000000E+01 -0.6766104E+03 -0.5737414E-03 -0.2251655E+03  0.5316533E-04 -0.8760232E+02  0.2739846E-12  0.8463705E+02  0.9828070E-04 -0.3850000E+02  0.1237604E-03  0.9247961E+02  0.9353160E-03  0.8549204E+02  0.9488425E-04 -0.2145350E+03 -0.9776875E-04 -0.2938185E+03 -0.5460540E-03
 -0.2900000E+01 -0.1008682E+04 -0.1907829E-03 -0.3294256E+03  0.4369460E-04 -0.1494265E+03  0.3520991E-12  0.1186461E+03  0.3017082E-04 -0.3691880E+02  0.1446684E-03  0.1030423E+03  0.9118558E-03  0.1777393E+03  0.5924919E-04 -0.1230770E+03 -0.4689984E-04 -0.1071627E+03 -0.5835694E-03
 -0.2800000E+01 -0.1189646E+04  0.1056449E-03 -0.4289072E+03  0.3546916E-04 -0.1880941E+03  0.4426722E-12  0.1284880E+03 -0.4255439E-04 -0.3726164E+02  0.1059537E-03  0.1073685E+03  0.7927340E-03  0.2462394E+03  0.9815768E-05 -0.1693350E+02  0.2471263E-04  0.9101482E+02 -0.5625340E-03
 -0.2700000E+01 -0.1172830E+04  0.3201466E-03 -0.5193391E+03  0.3007399E-04 -0.1942620E+03  0.5469892E-12  0.1107017E+03 -0.1091771E-03 -0.4492117E+02  0.1456611E-04  0.1125527E+03  0.5906955E-03  0.2762033E+03 -0.4783293E-04  0.7983133E+02  0.1000221E-03  0.2560984E+03 -0.4874427E-03
 -0.2600000E+01 -0.9467255E+03  0.4706669E-03 -0.5986924E+03  0.2807606E-04 -0.1641016E+03  0.6600890E-12  0.6705252E+02 -0.1594986E-03 -0.6437044E+02 -0.1145387E-03  0.1262533E+03  0.3297737E-03  0.2582375E+03 -0.1064771E-03  0.1416220E+03  0.1614830E-03  0.3436623E+03 -0.3692353E-03
 -0.2500000E+01 -0.5402137E+03  0.5824948E-03 -0.6677772E+03  0.2897161E-04 -0.1004460E+03  0.7710441E-12  0.4469471E+01 -0.1852255E-03 -0.9818746E+02 -0.2607795E-03  0.1551432E+03  0.4167956E-04  0.1903497E+03 -0.1582925E-03  0.1455031E+03  0.1941098E-03  0.3169735E+03 -0.2236737E-03
 -0.2400000E+01 -0.2056378E+02  0.6812582E-03 -0.7303099E+03  0.3136565E-04 -0.1278075E+02  0.8645788E-12 -0.6602033E+02 -0.1811226E-03 -0.1463925E+03 -0.4011702E-03  0.2034709E+03 -0.2389470E-03  0.7882662E+02 -0.1960179E-03  0.7530733E+02  0.1881621E-03  0.1538196E+03 -0.6907880E-04
 -0.2300000E+01  0.5159777E+03  0.7862705E-03 -0.7923742E+03  0.3334042E-04  0.8399913E+02  0.9237470E-12 -0.1312074E+03 -0.1457714E-03 -0.2062472E+03 -0.5138714E-03  0.2720120E+03 -0.4796765E-03 -0.6223167E+02 -0.2140747E-03 -0.7501939E+02  0.1410059E-03 -0.1484916E+03  0.7624168E-04
 -0.2200000E+01  0.9597956E+03  0.9054951E-03 -0.8612898E+03  0.3292868E-04  0.1719146E+03  0.9331456E-12 -0.1781450E+03 -0.8182461E-04 -0.2725753E+03 -0.5814955E-03  0.3576351E+03 -0.6549994E-03 -0.2127014E+03 -0.2094577E-03 -0.2994101E+03  0.5783000E-04 -0.5708533E+03  0.1964790E-03
 -0.2100000E+01  0.1207376E+04  0.1033122E-02 -0.9440295E+03  0.2859104E-04  0.2329663E+03  0.8820688E-12 -0.1966831E+03  0.4280350E-05 -0.3385822E+03 -0.5936517E-03  0.4536146E+03 -0.7498812E-03 -0.3493251E+03 -0.1822539E-03 -0.5794103E+03 -0.4893044E-04 -0.1073326E+04  0.2803695E-03
 -0.2000000E+01  0.1181356E+04  0.1150230E-02 -0.1045409E+04  0.1959572E-04  0.2524294E+03  0.7669796E-12 -0.1816105E+03  0.1031118E-03 -0.3970371E+03 -0.5483371E-03  0.5506542E+03 -0.7616053E-03 -0.4492657E+03 -0.1356991E-03 -0.8857717E+03 -0.1614015E-03 -0.1599328E+04  0.3224927E-03
 -0.1900000E+01  0.8476125E+03  0.1228454E-02 -0.1166341E+04  0.6224218E-05  0.2218063E+03  0.5928236E-12 -0.1339746E+03  0.2034307E-03 -0.4416101E+03 -0.4519785E-03  0.6384728E+03 -0.6996456E-03 -0.4937737E+03 -0.7575737E-04 -0.1181769E+04 -0.2590497E-03 -0.2082557E+04  0.3236515E-03
 -0.1800000E+01  0.2260900E+03  0.1236020E-02 -0.1302486E+04 -0.1024085E-04  0.1408930E+03  0.3729026E-12 -0.6127773E+02  0.2936129E-03 -0.4681151E+03 -0.3181543E-03  0.7076669E+03 -0.5836195E-03 -0.4713733E+03 -0.1028067E-04 -0.1427804E+04 -0.3220139E-03 -0.2455712E+04  0.2903009E-03
 -0.1700000E+01 -0.6070242E+03  0.1145016E-02 -0.1443570E+04 -0.2773857E-04  0.1853335E+02  0.1273008E-12  0.2355434E+02  0.3631150E-03 -0.4753993E+03 -0.1652383E-03  0.7514962E+03 -0.4396848E-03 -0.3800316E+03  0.5212457E-04 -0.1586667E+04 -0.3344638E-03 -0.2659734E+04  0.2331414E-03
 -0.1600000E+01 -0.1526812E+04  0.9385337E-03 -0.1573584E+04 -0.4381779E-04 -0.1281511E+03 -0.1198710E-12  0.1043111E+03  0.4037812E-03 -0.4656822E+03 -0.1338146E-04  0.7672291E+03 -0.2959908E-03 -0.2279254E+03  0.1033515E-03 -0.1628693E+04 -0.2874502E-03 -0.2652229E+04  0.1651229E-03
 -0.1500000E+01 -0.2376262E+04  0.6162949E-03 -0.1671954E+04 -0.5610762E-04 -0.2760197E+03 -0.3439576E-12  0.1644102E+03  0.4108241E-03 -0.4442324E+03  0.1186595E-03  0.7567521E+03 -0.1779409E-03 -0.3263607E+02  0.1369769E-03 -0.1536071E+04 -0.1807762E-03 -0.2413810E+04  0.9919531E-04
 -0.1400000E+01 -0.2989856E+04  0.1975778E-03 -0.1715607E+04 -0.6277541E-04 -0.3993642E+03 -0.5233513E-12  0.1900857E+03  0.3833499E-03 -0.4183860E+03  0.2163272E-03  0.7262544E+03 -0.1040401E-03  0.1811440E+03  0.1491925E-03 -0.1305651E+04 -0.2356668E-04 -0.1951384E+04  0.4617329E-04
 -0.1300000E+01 -0.3220596E+04 -0.2792583E-03 -0.1681750E+04 -0.6287703E-04 -0.4740358E+03 -0.6425860E-12  0.1732759E+03  0.3243673E-03 -0.3960442E+03  0.2712598E-03  0.6849882E+03 -0.8300234E-04  0.3850718E+03  0.1393400E-03 -0.9498474E+03  0.1665935E-03 -0.1297901E+04  0.1305756E-04
 -0.1200000E+01 -0.2966181E+04 -0.7608074E-03 -0.1550998E+04 -0.5653223E-04 -0.4815907E+03 -0.6944118E-12  0.1136489E+03  0.2402937E-03 -0.3838930E+03  0.2821926E-03  0.6432628E+03 -0.1125705E-03  0.5512632E+03  0.1099711E-03 -0.4954630E+03  0.3658520E-03 -0.5085668E+03  0.2075862E-05
 -0.1100000E+01 -0.2189938E+04 -0.1185689E-02 -0.1310467E+04 -0.4489006E-04 -0.4127592E+03 -0.6805146E-12  0.1933914E+02  0.1400384E-03 -0.3856637E+03  0.2546677E-03  0.6100094E+03 -0.1802179E-03  0.6564186E+03  0.6642452E-04  0.1937213E+02  0.5473072E-03  0.3459223E+03  0.1058340E-04
 -0.1000000E+01 -0.9327244E+03 -0.1493632E-02 -0.9563630E+03 -0.2989552E-04 -0.2696283E+03 -0.6108001E-12 -0.9383092E+02  0.3380029E-04 -0.4007719E+03  0.1996667E-03  0.5903583E+03 -0.2655876E-03  0.6853259E+03  0.1598736E-04  0.5497410E+03  0.6847835E-03  0.1188136E+04  0.3181766E-04
 -0.9000000E+00  0.6866908E+03 -0.1635102E-02 -0.4956830E+03 -0.1390831E-04 -0.6611045E+02 -0.5014126E-12 -0.2046048E+03 -0.6824804E-04 -0.4236356E+03  0.1314504E-03  0.5837157E+03 -0.3442406E-03  0.6331854E+03 -0.3322501E-04  0.1049297E+04  0.7565976E-03  0.1943393E+04  0.5636353E-04
 -0.8000000E+00  0.2483506E+04 -0.1579884E-02  0.5327590E+02  0.7473530E-06  0.1734629E+03 -0.3718719E-12 -0.2897148E+03 -0.1572068E-03 -0.4438790E+03  0.6501550E-04  0.5827698E+03 -0.3920750E-03  0.5063872E+03 -0.7349806E-04  0.1475697E+04  0.7487513E-03  0.2548614E+04  0.7406645E-04
 -0.7000000E+00  0.4229803E+04 -0.1323123E-02  0.6617555E+03  0.1220793E-04  0.4174793E+03 -0.2418687E-12 -0.3279395E+03 -0.2264592E-03 -0.4474791E+03  0.1362184E-04  0.5737339E+03 -0.3896697E-03  0.3216154E+03 -0.9866527E-04  0.1795353E+04  0.6570655E-03  0.2959320E+04  0.7606078E-04
 -0.6000000E+00  0.5685478E+04 -0.8877116E-03  0.1292691E+04  0.1938651E-04  0.6314863E+03 -0.1282792E-12 -0.3041188E+03 -0.2723203E-03 -0.4187657E+03 -0.1319809E-04  0.5379319E+03 -0.3258320E-03  0.1034091E+03 -0.1049997E-03  0.1986892E+04  0.4879347E-03  0.3153866E+04  0.5656237E-04
 -0.5000000E+00  0.6632728E+04 -0.3224695E-03  0.1903974E+04  0.2211705E-04  0.7832792E+03 -0.4290674E-13 -0.2124179E+03 -0.2942529E-03 -0.3430098E+03 -0.1084037E-04  0.4545951E+03 -0.1997619E-03 -0.1194380E+03 -0.9171755E-04  0.2042892E+04  0.2575830E-03  0.3134439E+04  0.1411756E-04
 -0.4000000E+00  0.6908887E+04  0.3037475E-03  0.2452459E+04  0.2110295E-04  0.8478516E+03  0.8701798E-14 -0.5821998E+02 -0.2946436E-03 -0.2092304E+03  0.2010640E-04  0.3045204E+03 -0.2148305E-04 -0.3180815E+03 -0.6102317E-04  0.1969757E+04 -0.1006044E-04  0.2924841E+04 -0.4790823E-04
 -0.3000000E+00  0.6432592E+04  0.9112278E-03  0.2898235E+04  0.1768707E-04  0.8114254E+03  0.2723534E-13  0.1417636E+03 -0.2781947E-03 -0.1276100E+02  0.7450394E-04  0.7403653E+02  0.1895245E-03 -0.4677842E+03 -0.1769895E-04  0.1785843E+04 -0.2865509E-03  0.2565594E+04 -0.1216923E-03
 -0.2000000E+00  0.5218903E+04  0.1420514E-02  0.3208665E+04  0.1349661E-04  0.6739050E+03  0.1848893E-13  0.3612968E+03 -0.2510401E-03  0.2428637E+03  0.1440227E-03 -0.2413606E+03  0.4072564E-03 -0.5513898E+03  0.3168751E-04  0.1518227E+04 -0.5427008E-03  0.2107212E+04 -0.1961129E-03
 -0.1000000E+00  0.3380932E+04  0.1763764E-02  0.3361649E+04  0.1004350E-04  0.4493288E+03 -0.8570457E-14  0.5681425E+03 -0.2197268E-03  0.5450786E+03  0.2189104E-03 -0.6343665E+03  0.6031964E-03 -0.5615898E+03  0.7982752E-04  0.1198643E+04 -0.7523818E-03  0.1602789E+04 -0.2585207E-03
  0.0000000E+00  0.1117217E+04  0.1894616E-02  0.3347788E+04  0.8367676E-05  0.1642064E+03 -0.4410816E-13  0.7288181E+03 -0.1902135E-03  0.8727404E+03  0.2898048E-03 -0.1084755E+04  0.7507494E-03 -0.5016586E+03  0.1197993E-03  0.8592539E+03 -0.8957983E-03  0.1101019E+04 -0.2968342E-03
  0.1000000E+00 -0.1313477E+04  0.1795002E-02  0.3171119E+04  0.8801191E-05 -0.1460423E+03 -0.7961214E-13  0.8138565E+03 -0.1670316E-03  0.1197907E+04  0.3492489E-03 -0.1560148E+04  0.8293806E-03 -0.3845765E+03  0.1461036E-03  0.5288328E+03 -0.9617800E-03  0.6406635E+03 -0.3016183E-03
  0.2000000E+00 -0.3626477E+04  0.1477862E-02  0.2848418E+04  0.1090359E-04 -0.4420297E+03 -0.1095336E-12  0.8027355E+03 -0.1527166E-03  0.1488781E+04  0.3926496E-03 -0.2018725E+04  0.8277950E-03 -0.2307195E+03  0.1554487E-03  0.2298911E+03 -0.9487850E-03  0.2471625E+03 -0.2678045E-03
  0.3000000E+00 -0.5549640E+04  0.9853075E-03  0.2407143E+04  0.1358209E-04 -0.6859855E+03 -0.1320797E-12  0.6876553E+03 -0.1475786E-03  0.1713454E+04  0.4185450E-03 -0.2413636E+04  0.7456612E-03 -0.6450938E+02  0.1471716E-03 -0.2294994E+02 -0.8645225E-03 -0.6831102E+02 -0.1957641E-03
  0.4000000E+00 -0.6860289E+04  0.3825284E-03  0.1882333E+04  0.1536862E-04 -0.8471367E+03 -0.1490443E-12  0.4755019E+03 -0.1498214E-03  0.1843978E+04  0.4281986E-03 -0.2698595E+04  0.5936244E-03  0.8941923E+02  0.1232398E-03 -0.2232441E+03 -0.7243094E-03 -0.3074662E+03 -0.9155464E-04