VARIABLES="w (rad/s)"  
Zone t="Diffraction force - beta =   0.000 deg",I=     2,F=POINT
  0.9904544E+00
  0.4429447E+01
