VARIABLES="w (rad/s)"  
Zone t="Diffraction force - beta =   0.000 deg",I=     1,F=POINT
  0.3132092E+01
