VARIABLES="X" "Y" "Z" "NX" "NY" "NZ" "A"
 ZONE N=        6336 , E=        5985  , F=FEPOINT,ET=QUADRILATERAL
   0.5000000E+00   0.0000000E+00   0.0000000E+00   0.0000000E+00   0.0000000E+00   0.0000000E+00   0.0000000E+00
   0.4997266E+00   0.1653169E-01   0.0000000E+00   0.0000000E+00   0.0000000E+00   0.0000000E+00   0.0000000E+00
   0.4989068E+00   0.3304529E-01   0.0000000E+00   0.0000000E+00   0.0000000E+00   0.0000000E+00   0.0000000E+00
   0.4975415E+00   0.4952276E-01   0.0000000E+00   0.0000000E+00   0.0000000E+00   0.0000000E+00   0.0000000E+00
   0.4956320E+00   0.6594609E-01   0.0000000E+00   0.0000000E+00   0.0000000E+00   0.0000000E+00   0.0000000E+00
   0.4931807E+00   0.8229730E-01   0.0000000E+00   0.0000000E+00   0.0000000E+00   0.0000000E+00   0.0000000E+00
   0.4901900E+00   0.9855852E-01   0.0000000E+00   0.0000000E+00   0.0000000E+00   0.0000000E+00   0.0000000E+00
   0.4866633E+00   0.1147120E+00   0.0000000E+00   0.0000000E+00   0.0000000E+00   0.0000000E+00   0.0000000E+00
   0.4826044E+00   0.1307400E+00   0.0000000E+00   0.0000000E+00   0.0000000E+00   0.0000000E+00   0.0000000E+00
   0.4780179E+00   0.1466250E+00   0.0000000E+00   0.0000000E+00   0.0000000E+00   0.0000000E+00   0.0000000E+00
   0.4729086E+00   0.1623497E+00   0.0000000E+00   0.0000000E+00   0.0000000E+00   0.0000000E+00   0.0000000E+00
   0.4672822E+00   0.1778969E+00   0.0000000E+00   0.0000000E+00   0.0000000E+00   0.0000000E+00   0.0000000E+00
   0.4611449E+00   0.1932496E+00   0.0000000E+00   0.0000000E+00   0.0000000E+00   0.0000000E+00   0.0000000E+00
   0.4545033E+00   0.2083909E+00   0.0000000E+00   0.0000000E+00   0.0000000E+00   0.0000000E+00   0.0000000E+00
   0.4473647E+00   0.2233044E+00   0.0000000E+00   0.0000000E+00   0.0000000E+00   0.0000000E+00   0.0000000E+00
   0.4397369E+00   0.2379737E+00   0.0000000E+00   0.0000000E+00   0.0000000E+00   0.0000000E+00   0.0000000E+00
   0.4316282E+00   0.2523828E+00   0.0000000E+00   0.0000000E+00   0.0000000E+00   0.0000000E+00   0.0000000E+00
   0.4230476E+00   0.2665159E+00   0.0000000E+00   0.0000000E+00   0.0000000E+00   0.0000000E+00   0.0000000E+00
   0.4140044E+00   0.2803575E+00   0.0000000E+00   0.0000000E+00   0.0000000E+00   0.0000000E+00   0.0000000E+00
   0.4045085E+00   0.2938926E+00   0.0000000E+00   0.0000000E+00   0.0000000E+00   0.0000000E+00   0.0000000E+00
   0.3945703E+00   0.3071063E+00   0.0000000E+00   0.0000000E+00   0.0000000E+00   0.0000000E+00   0.0000000E+00
   0.3842005E+00   0.3199843E+00   0.0000000E+00   0.0000000E+00   0.0000000E+00   0.0000000E+00   0.0000000E+00
   0.3734107E+00   0.3325123E+00   0.0000000E+00   0.0000000E+00   0.0000000E+00   0.0000000E+00   0.0000000E+00
   0.3622126E+00   0.3446767E+00   0.0000000E+00   0.0000000E+00   0.0000000E+00   0.0000000E+00   0.0000000E+00
   0.3506184E+00   0.3564642E+00   0.0000000E+00   0.0000000E+00   0.0000000E+00   0.0000000E+00   0.0000000E+00
   0.3386408E+00   0.3678620E+00   0.0000000E+00   0.0000000E+00   0.0000000E+00   0.0000000E+00   0.0000000E+00
   0.3262929E+00   0.3788574E+00   0.0000000E+00   0.0000000E+00   0.0000000E+00   0.0000000E+00   0.0000000E+00
   0.3135882E+00   0.3894386E+00   0.0000000E+00   0.0000000E+00   0.0000000E+00   0.0000000E+00   0.0000000E+00
   0.3005406E+00   0.3995940E+00   0.0000000E+00   0.0000000E+00   0.0000000E+00   0.0000000E+00   0.0000000E+00
   0.2871643E+00   0.4093124E+00   0.0000000E+00   0.0000000E+00   0.0000000E+00   0.0000000E+00   0.0000000E+00
   0.2734741E+00   0.4185832E+00   0.0000000E+00   0.0000000E+00   0.0000000E+00   0.0000000E+00   0.0000000E+00
   0.2594848E+00   0.4273964E+00   0.0000000E+00   0.0000000E+00   0.0000000E+00   0.0000000E+00   0.0000000E+00
   0.2452118E+00   0.4357421E+00   0.0000000E+00   0.0000000E+00   0.0000000E+00   0.0000000E+00   0.0000000E+00
   0.2306706E+00   0.4436114E+00   0.0000000E+00   0.0000000E+00   0.0000000E+00   0.0000000E+00   0.0000000E+00
   0.2158772E+00   0.4509956E+00   0.0000000E+00   0.0000000E+00   0.0000000E+00   0.0000000E+00   0.0000000E+00
   0.2008477E+00   0.4578867E+00   0.0000000E+00   0.0000000E+00   0.0000000E+00   0.0000000E+00   0.0000000E+00
   0.1855986E+00   0.4642770E+00   0.0000000E+00   0.0000000E+00   0.0000000E+00   0.0000000E+00   0.0000000E+00
   0.1701466E+00   0.4701597E+00   0.0000000E+00   0.0000000E+00   0.0000000E+00   0.0000000E+00   0.0000000E+00
   0.1545085E+00   0.4755283E+00   0.0000000E+00   0.0000000E+00   0.0000000E+00   0.0000000E+00   0.0000000E+00
   0.1387015E+00   0.4803768E+00   0.0000000E+00   0.0000000E+00   0.0000000E+00   0.0000000E+00   0.0000000E+00
   0.1227427E+00   0.4847001E+00   0.0000000E+00   0.0000000E+00   0.0000000E+00   0.0000000E+00   0.0000000E+00
   0.1066498E+00   0.4884934E+00   0.0000000E+00   0.0000000E+00   0.0000000E+00   0.0000000E+00   0.0000000E+00
   0.9044027E-01   0.4917525E+00   0.0000000E+00   0.0000000E+00   0.0000000E+00   0.0000000E+00   0.0000000E+00
   0.7413182E-01   0.4944739E+00   0.0000000E+00   0.0000000E+00   0.0000000E+00   0.0000000E+00   0.0000000E+00
   0.5774232E-01   0.4966546E+00   0.0000000E+00   0.0000000E+00   0.0000000E+00   0.0000000E+00   0.0000000E+00
   0.4128967E-01   0.4982922E+00   0.0000000E+00   0.0000000E+00   0.0000000E+00   0.0000000E+00   0.0000000E+00
   0.2479188E-01   0.4993850E+00   0.0000000E+00   0.0000000E+00   0.0000000E+00   0.0000000E+00   0.0000000E+00
   0.8266972E-02   0.4999317E+00   0.0000000E+00   0.0000000E+00   0.0000000E+00   0.0000000E+00   0.0000000E+00
  -0.8266972E-02   0.4999317E+00   0.0000000E+00   0.0000000E+00   0.0000000E+00   0.0000000E+00   0.0000000E+00
  -0.2479188E-01   0.4993850E+00   0.0000000E+00   0.0000000E+00   0.0000000E+00   0.0000000E+00   0.0000000E+00
  -0.4128967E-01   0.4982922E+00   0.0000000E+00   0.0000000E+00   0.0000000E+00   0.0000000E+00   0.0000000E+00
  -0.5774232E-01   0.4966546E+00   0.0000000E+00   0.0000000E+00   0.0000000E+00   0.0000000E+00   0.0000000E+00
  -0.7413182E-01   0.4944739E+00   0.0000000E+00   0.0000000E+00   0.0000000E+00   0.0000000E+00   0.0000000E+00
  -0.9044027E-01   0.4917525E+00   0.0000000E+00   0.0000000E+00   0.0000000E+00   0.0000000E+00   0.0000000E+00
  -0.1066498E+00   0.4884934E+00   0.0000000E+00   0.0000000E+00   0.0000000E+00   0.0000000E+00   0.0000000E+00
  -0.1227427E+00   0.4847001E+00   0.0000000E+00   0.0000000E+00   0.0000000E+00   0.0000000E+00   0.0000000E+00
  -0.1387015E+00   0.4803768E+00   0.0000000E+00   0.0000000E+00   0.0000000E+00   0.0000000E+00   0.0000000E+00
  -0.1545085E+00   0.4755283E+00   0.0000000E+00   0.0000000E+00   0.0000000E+00   0.0000000E+00   0.0000000E+00
  -0.1701466E+00   0.4701597E+00   0.0000000E+00   0.0000000E+00   0.0000000E+00   0.0000000E+00   0.0000000E+00
  -0.1855986E+00   0.4642770E+00   0.0000000E+00   0.0000000E+00   0.0000000E+00   0.0000000E+00   0.0000000E+00
  -0.2008477E+00   0.4578867E+00   0.0000000E+00   0.0000000E+00   0.0000000E+00   0.0000000E+00   0.0000000E+00
  -0.2158772E+00   0.4509956E+00   0.0000000E+00   0.0000000E+00   0.0000000E+00   0.0000000E+00   0.0000000E+00
  -0.2306706E+00   0.4436114E+00   0.0000000E+00   0.0000000E+00   0.0000000E+00   0.0000000E+00   0.0000000E+00
  -0.2452118E+00   0.4357421E+00   0.0000000E+00   0.0000000E+00   0.0000000E+00   0.0000000E+00   0.0000000E+00
  -0.2594848E+00   0.4273964E+00   0.0000000E+00   0.0000000E+00   0.0000000E+00   0.0000000E+00   0.0000000E+00
  -0.2734741E+00   0.4185832E+00   0.0000000E+00   0.0000000E+00   0.0000000E+00   0.0000000E+00   0.0000000E+00
  -0.2871643E+00   0.4093124E+00   0.0000000E+00   0.0000000E+00   0.0000000E+00   0.0000000E+00   0.0000000E+00
  -0.3005406E+00   0.3995940E+00   0.0000000E+00   0.0000000E+00   0.0000000E+00   0.0000000E+00   0.0000000E+00
  -0.3135882E+00   0.3894386E+00   0.0000000E+00   0.0000000E+00   0.0000000E+00   0.0000000E+00   0.0000000E+00
  -0.3262929E+00   0.3788574E+00   0.0000000E+00   0.0000000E+00   0.0000000E+00   0.0000000E+00   0.0000000E+00
  -0.3386408E+00   0.3678620E+00   0.0000000E+00   0.0000000E+00   0.0000000E+00   0.0000000E+00   0.0000000E+00
  -0.3506184E+00   0.3564642E+00   0.0000000E+00   0.0000000E+00   0.0000000E+00   0.0000000E+00   0.0000000E+00
  -0.3622126E+00   0.3446767E+00   0.0000000E+00   0.0000000E+00   0.0000000E+00   0.0000000E+00   0.0000000E+00
  -0.3734107E+00   0.3325123E+00   0.0000000E+00   0.0000000E+00   0.0000000E+00   0.0000000E+00   0.0000000E+00
  -0.3842005E+00   0.3199843E+00   0.0000000E+00   0.0000000E+00   0.0000000E+00   0.0000000E+00   0.0000000E+00
  -0.3945703E+00   0.3071063E+00   0.0000000E+00   0.0000000E+00   0.0000000E+00   0.0000000E+00   0.0000000E+00
  -0.4045085E+00   0.2938926E+00   0.0000000E+00   0.0000000E+00   0.0000000E+00   0.0000000E+00   0.0000000E+00
  -0.4140044E+00   0.2803575E+00   0.0000000E+00   0.0000000E+00   0.0000000E+00   0.0000000E+00   0.0000000E+00
  -0.4230476E+00   0.2665159E+00   0.0000000E+00   0.0000000E+00   0.0000000E+00   0.0000000E+00   0.0000000E+00
  -0.4316282E+00   0.2523828E+00   0.0000000E+00   0.0000000E+00   0.0000000E+00   0.0000000E+00   0.0000000E+00
  -0.4397369E+00   0.2379737E+00   0.0000000E+00   0.0000000E+00   0.0000000E+00   0.0000000E+00   0.0000000E+00
  -0.4473647E+00   0.2233044E+00   0.0000000E+00   0.0000000E+00   0.0000000E+00   0.0000000E+00   0.0000000E+00
  -0.4545033E+00   0.2083909E+00   0.0000000E+00   0.0000000E+00   0.0000000E+00   0.0000000E+00   0.0000000E+00
  -0.4611449E+00   0.1932496E+00   0.0000000E+00   0.0000000E+00   0.0000000E+00   0.0000000E+00   0.0000000E+00
  -0.4672822E+00   0.1778969E+00   0.0000000E+00   0.0000000E+00   0.0000000E+00   0.0000000E+00   0.0000000E+00
  -0.4729086E+00   0.1623497E+00   0.0000000E+00   0.0000000E+00   0.0000000E+00   0.0000000E+00   0.0000000E+00
  -0.4780179E+00   0.1466250E+00   0.0000000E+00   0.0000000E+00   0.0000000E+00   0.0000000E+00   0.0000000E+00
  -0.4826044E+00   0.1307400E+00   0.0000000E+00   0.0000000E+00   0.0000000E+00   0.0000000E+00   0.0000000E+00
  -0.4866633E+00   0.1147120E+00   0.0000000E+00   0.0000000E+00   0.0000000E+00   0.0000000E+00   0.0000000E+00
  -0.4901900E+00   0.9855852E-01   0.0000000E+00   0.0000000E+00   0.0000000E+00   0.0000000E+00   0.0000000E+00
  -0.4931807E+00   0.8229730E-01   0.0000000E+00   0.0000000E+00   0.0000000E+00   0.0000000E+00   0.0000000E+00
  -0.4956320E+00   0.6594609E-01   0.0000000E+00   0.0000000E+00   0.0000000E+00   0.0000000E+00   0.0000000E+00
  -0.4975415E+00   0.4952276E-01   0.0000000E+00   0.0000000E+00   0.0000000E+00   0.0000000E+00   0.0000000E+00
  -0.4989068E+00   0.3304529E-01   0.0000000E+00   0.0000000E+00   0.0000000E+00   0.0000000E+00   0.0000000E+00
  -0.4997266E+00   0.1653169E-01   0.0000000E+00   0.0000000E+00   0.0000000E+00   0.0000000E+00   0.0000000E+00
  -0.5000000E+00   0.6130000E-16   0.0000000E+00   0.0000000E+00   0.0000000E+00   0.0000000E+00   0.0000000E+00
   0.5000000E+00   0.0000000E+00  -0.9090909E-01   0.0000000E+00   0.0000000E+00   0.0000000E+00   0.0000000E+00
   0.4997266E+00   0.1653169E-01  -0.9090909E-01   0.0000000E+00   0.0000000E+00   0.0000000E+00   0.0000000E+00
   0.4989068E+00   0.3304529E-01  -0.9090909E-01   0.0000000E+00   0.0000000E+00   0.0000000E+00   0.0000000E+00
   0.4975415E+00   0.4952276E-01  -0.9090909E-01   0.0000000E+00   0.0000000E+00   0.0000000E+00   0.0000000E+00
   0.4956320E+00   0.6594609E-01  -0.9090909E-01   0.0000000E+00   0.0000000E+00   0.0000000E+00   0.0000000E+00
   0.4931807E+00   0.8229730E-01  -0.9090909E-01   0.0000000E+00   0.0000000E+00   0.0000000E+00   0.0000000E+00
   0.4901900E+00   0.9855852E-01  -0.9090909E-01   0.0000000E+00   0.0000000E+00   0.0000000E+00   0.0000000E+00
   0.4866633E+00   0.1147120E+00  -0.9090909E-01   0.0000000E+00   0.0000000E+00   0.0000000E+00   0.0000000E+00
   0.4826044E+00   0.1307400E+00  -0.9090909E-01   0.0000000E+00   0.0000000E+00   0.0000000E+00   0.0000000E+00
   0.4780179E+00   0.1466250E+00  -0.9090909E-01   0.0000000E+00   0.0000000E+00   0.0000000E+00   0.0000000E+00
   0.4729086E+00   0.1623497E+00  -0.9090909E-01   0.0000000E+00   0.0000000E+00   0.0000000E+00   0.0000000E+00
   0.4672822E+00   0.1778969E+00  -0.9090909E-01   0.0000000E+00   0.0000000E+00   0.0000000E+00   0.0000000E+00
   0.4611449E+00   0.1932496E+00  -0.9090909E-01   0.0000000E+00   0.0000000E+00   0.0000000E+00   0.0000000E+00
   0.4545033E+00   0.2083909E+00  -0.9090909E-01   0.0000000E+00   0.0000000E+00   0.0000000E+00   0.0000000E+00
   0.4473647E+00   0.2233044E+00  -0.9090909E-01   0.0000000E+00   0.0000000E+00   0.0000000E+00   0.0000000E+00
   0.4397369E+00   0.2379737E+00  -0.9090909E-01   0.0000000E+00   0.0000000E+00   0.0000000E+00   0.0000000E+00
   0.4316282E+00   0.2523828E+00  -0.9090909E-01   0.0000000E+00   0.0000000E+00   0.0000000E+00   0.0000000E+00
   0.4230476E+00   0.2665159E+00  -0.9090909E-01   0.0000000E+00   0.0000000E+00   0.0000000E+00   0.0000000E+00
   0.4140044E+00   0.2803575E+00  -0.9090909E-01   0.0000000E+00   0.0000000E+00   0.0000000E+00   0.0000000E+00
   0.4045085E+00   0.2938926E+00  -0.9090909E-01   0.0000000E+00   0.0000000E+00   0.0000000E+00   0.0000000E+00
   0.3945703E+00   0.3071063E+00  -0.9090909E-01   0.0000000E+00   0.0000000E+00   0.0000000E+00   0.0000000E+00
   0.3842005E+00   0.3199843E+00  -0.9090909E-01   0.0000000E+00   0.0000000E+00   0.0000000E+00   0.0000000E+00
   0.3734107E+00   0.3325123E+00  -0.9090909E-01   0.0000000E+00   0.0000000E+00   0.0000000E+00   0.0000000E+00
   0.3622126E+00   0.3446767E+00  -0.9090909E-01   0.0000000E+00   0.0000000E+00   0.0000000E+00   0.0000000E+00
   0.3506184E+00   0.3564642E+00  -0.9090909E-01   0.0000000E+00   0.0000000E+00   0.0000000E+00   0.0000000E+00
   0.3386408E+00   0.3678620E+00  -0.9090909E-01   0.0000000E+00   0.0000000E+00   0.0000000E+00   0.0000000E+00
   0.3262929E+00   0.3788574E+00  -0.9090909E-01   0.0000000E+00   0.0000000E+00   0.0000000E+00   0.0000000E+00
   0.3135882E+00   0.3894386E+00  -0.9090909E-01   0.0000000E+00   0.0000000E+00   0.0000000E+00   0.0000000E+00
   0.3005406E+00   0.3995940E+00  -0.9090909E-01   0.0000000E+00   0.0000000E+00   0.0000000E+00   0.0000000E+00
   0.2871643E+00   0.4093124E+00  -0.9090909E-01   0.0000000E+00   0.0000000E+00   0.0000000E+00   0.0000000E+00
   0.2734741E+00   0.4185832E+00  -0.9090909E-01   0.0000000E+00   0.0000000E+00   0.0000000E+00   0.0000000E+00
   0.2594848E+00   0.4273964E+00  -0.9090909E-01   0.0000000E+00   0.0000000E+00   0.0000000E+00   0.0000000E+00
   0.2452118E+00   0.4357421E+00  -0.9090909E-01   0.0000000E+00   0.0000000E+00   0.0000000E+00   0.0000000E+00
   0.2306706E+00   0.4436114E+00  -0.9090909E-01   0.0000000E+00   0.0000000E+00   0.0000000E+00   0.0000000E+00
   0.2158772E+00   0.4509956E+00  -0.9090909E-01   0.0000000E+00   0.0000000E+00   0.0000000E+00   0.0000000E+00
   0.2008477E+00   0.4578867E+00  -0.9090909E-01   0.0000000E+00   0.0000000E+00   0.0000000E+00   0.0000000E+00
   0.1855986E+00   0.4642770E+00  -0.9090909E-01   0.0000000E+00   0.0000000E+00   0.0000000E+00   0.0000000E+00
   0.1701466E+00   0.4701597E+00  -0.9090909E-01   0.0000000E+00   0.0000000E+00   0.0000000E+00   0.0000000E+00
   0.1545085E+00   0.4755283E+00  -0.9090909E-01   0.0000000E+00   0.0000000E+00   0.0000000E+00   0.0000000E+00
   0.1387015E+00   0.4803768E+00  -0.9090909E-01   0.0000000E+00   0.0000000E+00   0.0000000E+00   0.0000000E+00
   0.1227427E+00   0.4847001E+00  -0.9090909E-01   0.0000000E+00   0.0000000E+00   0.0000000E+00   0.0000000E+00
   0.1066498E+00   0.4884934E+00  -0.9090909E-01   0.0000000E+00   0.0000000E+00   0.0000000E+00   0.0000000E+00
   0.9044027E-01   0.4917525E+00  -0.9090909E-01   0.0000000E+00   0.0000000E+00   0.0000000E+00   0.0000000E+00
   0.7413182E-01   0.4944739E+00  -0.9090909E-01   0.0000000E+00   0.0000000E+00   0.0000000E+00   0.0000000E+00
   0.5774232E-01   0.4966546E+00  -0.9090909E-01   0.0000000E+00   0.0000000E+00   0.0000000E+00   0.0000000E+00
   0.4128967E-01   0.4982922E+00  -0.9090909E-01   0.0000000E+00   0.0000000E+00   0.0000000E+00   0.0000000E+00
   0.2479188E-01   0.4993850E+00  -0.9090909E-01   0.0000000E+00   0.0000000E+00   0.0000000E+00   0.0000000E+00
   0.8266972E-02   0.4999317E+00  -0.9090909E-01   0.0000000E+00   0.0000000E+00   0.0000000E+00   0.0000000E+00
  -0.8266972E-02   0.4999317E+00  -0.9090909E-01   0.0000000E+00   0.0000000E+00   0.0000000E+00   0.0000000E+00
  -0.2479188E-01   0.4993850E+00  -0.9090909E-01   0.0000000E+00   0.0000000E+00   0.0000000E+00   0.0000000E+00
  -0.4128967E-01   0.4982922E+00  -0.9090909E-01   0.0000000E+00   0.0000000E+00   0.0000000E+00   0.0000000E+00
  -0.5774232E-01   0.4966546E+00  -0.9090909E-01   0.0000000E+00   0.0000000E+00   0.0000000E+00   0.0000000E+00
  -0.7413182E-01   0.4944739E+00  -0.9090909E-01   0.0000000E+00   0.0000000E+00   0.0000000E+00   0.0000000E+00
  -0.9044027E-01   0.4917525E+00  -0.9090909E-01   0.0000000E+00   0.0000000E+00   0.0000000E+00   0.0000000E+00
  -0.1066498E+00   0.4884934E+00  -0.9090909E-01   0.0000000E+00   0.0000000E+00   0.0000000E+00   0.0000000E+00
  -0.1227427E+00   0.4847001E+00  -0.9090909E-01   0.0000000E+00   0.0000000E+00   0.0000000E+00   0.0000000E+00
  -0.1387015E+00   0.4803768E+00  -0.9090909E-01   0.0000000E+00   0.0000000E+00   0.0000000E+00   0.0000000E+00
  -0.1545085E+00   0.4755283E+00  -0.9090909E-01   0.0000000E+00   0.0000000E+00   0.0000000E+00   0.0000000E+00
  -0.1701466E+00   0.4701597E+00  -0.9090909E-01   0.0000000E+00   0.0000000E+00   0.0000000E+00   0.0000000E+00
  -0.1855986E+00   0.4642770E+00  -0.9090909E-01   0.0000000E+00   0.0000000E+00   0.0000000E+00   0.0000000E+00
  -0.2008477E+00   0.4578867E+00  -0.9090909E-01   0.0000000E+00   0.0000000E+00   0.0000000E+00   0.0000000E+00
  -0.2158772E+00   0.4509956E+00  -0.9090909E-01   0.0000000E+00   0.0000000E+00   0.0000000E+00   0.0000000E+00
  -0.2306706E+00   0.4436114E+00  -0.9090909E-01   0.0000000E+00   0.0000000E+00   0.0000000E+00   0.0000000E+00
  -0.2452118E+00   0.4357421E+00  -0.9090909E-01   0.0000000E+00   0.0000000E+00   0.0000000E+00   0.0000000E+00
  -0.2594848E+00   0.4273964E+00  -0.9090909E-01   0.0000000E+00   0.0000000E+00   0.0000000E+00   0.0000000E+00
  -0.2734741E+00   0.4185832E+00  -0.9090909E-01   0.0000000E+00   0.0000000E+00   0.0000000E+00   0.0000000E+00
  -0.2871643E+00   0.4093124E+00  -0.9090909E-01   0.0000000E+00   0.0000000E+00   0.0000000E+00   0.0000000E+00
  -0.3005406E+00   0.3995940E+00  -0.9090909E-01   0.0000000E+00   0.0000000E+00   0.0000000E+00   0.0000000E+00
  -0.3135882E+00   0.3894386E+00  -0.9090909E-01   0.0000000E+00   0.0000000E+00   0.0000000E+00   0.0000000E+00
  -0.3262929E+00   0.3788574E+00  -0.9090909E-01   0.0000000E+00   0.0000000E+00   0.0000000E+00   0.0000000E+00
  -0.3386408E+00   0.3678620E+00  -0.9090909E-01   0.0000000E+00   0.0000000E+00   0.0000000E+00   0.0000000E+00
  -0.3506184E+00   0.3564642E+00  -0.9090909E-01   0.0000000E+00   0.0000000E+00   0.0000000E+00   0.0000000E+00
  -0.3622126E+00   0.3446767E+00  -0.9090909E-01   0.0000000E+00   0.0000000E+00   0.0000000E+00   0.0000000E+00
  -0.3734107E+00   0.3325123E+00  -0.9090909E-01   0.0000000E+00   0.0000000E+00   0.0000000E+00   0.0000000E+00
  -0.3842005E+00   0.3199843E+00  -0.9090909E-01   0.0000000E+00   0.0000000E+00   0.0000000E+00   0.0000000E+00
  -0.3945703E+00   0.3071063E+00  -0.9090909E-01   0.0000000E+00   0.0000000E+00   0.0000000E+00   0.0000000E+00
  -0.4045085E+00   0.2938926E+00  -0.9090909E-01   0.0000000E+00   0.0000000E+00   0.0000000E+00   0.0000000E+00
  -0.4140044E+00   0.2803575E+00  -0.9090909E-01   0.0000000E+00   0.0000000E+00   0.0000000E+00   0.0000000E+00
  -0.4230476E+00   0.2665159E+00  -0.9090909E-01   0.0000000E+00   0.0000000E+00   0.0000000E+00   0.0000000E+00
  -0.4316282E+00   0.2523828E+00  -0.9090909E-01   0.0000000E+00   0.0000000E+00   0.0000000E+00   0.0000000E+00
  -0.4397369E+00   0.2379737E+00  -0.9090909E-01   0.0000000E+00   0.0000000E+00   0.0000000E+00   0.0000000E+00
  -0.4473647E+00   0.2233044E+00  -0.9090909E-01   0.0000000E+00   0.0000000E+00   0.0000000E+00   0.0000000E+00
  -0.4545033E+00   0.2083909E+00  -0.9090909E-01   0.0000000E+00   0.0000000E+00   0.0000000E+00   0.0000000E+00
  -0.4611449E+00   0.1932496E+00  -0.9090909E-01   0.0000000E+00   0.0000000E+00   0.0000000E+00   0.0000000E+00
  -0.4672822E+00   0.1778969E+00  -0.9090909E-01   0.0000000E+00   0.0000000E+00   0.0000000E+00   0.0000000E+00
  -0.4729086E+00   0.1623497E+00  -0.9090909E-01   0.0000000E+00   0.0000000E+00   0.0000000E+00   0.0000000E+00
  -0.4780179E+00   0.1466250E+00  -0.9090909E-01   0.0000000E+00   0.0000000E+00   0.0000000E+00   0.0000000E+00
  -0.4826044E+00   0.1307400E+00  -0.9090909E-01   0.0000000E+00   0.0000000E+00   0.0000000E+00   0.0000000E+00
  -0.4866633E+00   0.1147120E+00  -0.9090909E-01   0.0000000E+00   0.0000000E+00   0.0000000E+00   0.0000000E+00
  -0.4901900E+00   0.9855852E-01  -0.9090909E-01   0.0000000E+00   0.0000000E+00   0.0000000E+00   0.0000000E+00
  -0.4931807E+00   0.8229730E-01  -0.9090909E-01   0.0000000E+00   0.0000000E+00   0.0000000E+00   0.0000000E+00
  -0.4956320E+00   0.6594609E-01  -0.9090909E-01   0.0000000E+00   0.0000000E+00   0.0000000E+00   0.0000000E+00
  -0.4975415E+00   0.4952276E-01  -0.9090909E-01   0.0000000E+00   0.0000000E+00   0.0000000E+00   0.0000000E+00
  -0.4989068E+00   0.3304529E-01  -0.9090909E-01   0.0000000E+00   0.0000000E+00   0.0000000E+00   0.0000000E+00
  -0.4997266E+00   0.1653169E-01  -0.9090909E-01   0.0000000E+00   0.0000000E+00   0.0000000E+00   0.0000000E+00
  -0.5000000E+00   0.6130000E-16  -0.9090909E-01   0.0000000E+00   0.0000000E+00   0.0000000E+00   0.0000000E+00
   0.5000000E+00   0.0000000E+00  -0.1818182E+00   0.0000000E+00   0.0000000E+00   0.0000000E+00   0.0000000E+00
   0.4997266E+00   0.1653169E-01  -0.1818182E+00   0.0000000E+00   0.0000000E+00   0.0000000E+00   0.0000000E+00
   0.4989068E+00   0.3304529E-01  -0.1818182E+00   0.0000000E+00   0.0000000E+00   0.0000000E+00   0.0000000E+00
   0.4975415E+00   0.4952276E-01  -0.1818182E+00   0.0000000E+00   0.0000000E+00   0.0000000E+00   0.0000000E+00
   0.4956320E+00   0.6594609E-01  -0.1818182E+00   0.0000000E+00   0.0000000E+00   0.0000000E+00   0.0000000E+00
   0.4931807E+00   0.8229730E-01  -0.1818182E+00   0.0000000E+00   0.0000000E+00   0.0000000E+00   0.0000000E+00
   0.4901900E+00   0.9855852E-01  -0.1818182E+00   0.0000000E+00   0.0000000E+00   0.0000000E+00   0.0000000E+00
   0.4866633E+00   0.1147120E+00  -0.1818182E+00   0.0000000E+00   0.0000000E+00   0.0000000E+00   0.0000000E+00
   0.4826044E+00   0.1307400E+00  -0.1818182E+00   0.0000000E+00   0.0000000E+00   0.0000000E+00   0.0000000E+00
   0.4780179E+00   0.1466250E+00  -0.1818182E+00   0.0000000E+00   0.0000000E+00   0.0000000E+00   0.0000000E+00
   0.4729086E+00   0.1623497E+00  -0.1818182E+00   0.0000000E+00   0.0000000E+00   0.0000000E+00   0.0000000E+00
   0.4672822E+00   0.1778969E+00  -0.1818182E+00   0.0000000E+00   0.0000000E+00   0.0000000E+00   0.0000000E+00
   0.4611449E+00   0.1932496E+00  -0.1818182E+00   0.0000000E+00   0.0000000E+00   0.0000000E+00   0.0000000E+00
   0.4545033E+00   0.2083909E+00  -0.1818182E+00   0.0000000E+00   0.0000000E+00   0.0000000E+00   0.0000000E+00
   0.4473647E+00   0.2233044E+00  -0.1818182E+00   0.0000000E+00   0.0000000E+00   0.0000000E+00   0.0000000E+00
   0.4397369E+00   0.2379737E+00  -0.1818182E+00   0.0000000E+00   0.0000000E+00   0.0000000E+00   0.0000000E+00
   0.4316282E+00   0.2523828E+00  -0.1818182E+00   0.0000000E+00   0.0000000E+00   0.0000000E+00   0.0000000E+00
   0.4230476E+00   0.2665159E+00  -0.1818182E+00   0.0000000E+00   0.0000000E+00   0.0000000E+00   0.0000000E+00
   0.4140044E+00   0.2803575E+00  -0.1818182E+00   0.0000000E+00   0.0000000E+00   0.0000000E+00   0.0000000E+00
   0.4045085E+00   0.2938926E+00  -0.1818182E+00   0.0000000E+00   0.0000000E+00   0.0000000E+00   0.0000000E+00
   0.3945703E+00   0.3071063E+00  -0.1818182E+00   0.0000000E+00   0.0000000E+00   0.0000000E+00   0.0000000E+00
   0.3842005E+00   0.3199843E+00  -0.1818182E+00   0.0000000E+00   0.0000000E+00   0.0000000E+00   0.0000000E+00
   0.3734107E+00   0.3325123E+00  -0.1818182E+00   0.0000000E+00   0.0000000E+00   0.0000000E+00   0.0000000E+00
   0.3622126E+00   0.3446767E+00  -0.1818182E+00   0.0000000E+00   0.0000000E+00   0.0000000E+00   0.0000000E+00
   0.3506184E+00   0.3564642E+00  -0.1818182E+00   0.0000000E+00   0.0000000E+00   0.0000000E+00   0.0000000E+00
   0.3386408E+00   0.3678620E+00  -0.1818182E+00   0.0000000E+00   0.0000000E+00   0.0000000E+00   0.0000000E+00
   0.3262929E+00   0.3788574E+00  -0.1818182E+00   0.0000000E+00   0.0000000E+00   0.0000000E+00   0.0000000E+00
   0.3135882E+00   0.3894386E+00  -0.1818182E+00   0.0000000E+00   0.0000000E+00   0.0000000E+00   0.0000000E+00
   0.3005406E+00   0.3995940E+00  -0.1818182E+00   0.0000000E+00   0.0000000E+00   0.0000000E+00   0.0000000E+00
   0.2871643E+00   0.4093124E+00  -0.1818182E+00   0.0000000E+00   0.0000000E+00   0.0000000E+00   0.0000000E+00
   0.2734741E+00   0.4185832E+00  -0.1818182E+00   0.0000000E+00   0.0000000E+00   0.0000000E+00   0.0000000E+00
   0.2594848E+00   0.4273964E+00  -0.1818182E+00   0.0000000E+00   0.0000000E+00   0.0000000E+00   0.0000000E+00
   0.2452118E+00   0.4357421E+00  -0.1818182E+00   0.0000000E+00   0.0000000E+00   0.0000000E+00   0.0000000E+00
   0.2306706E+00   0.4436114E+00  -0.1818182E+00   0.0000000E+00   0.0000000E+00   0.0000000E+00   0.0000000E+00
   0.2158772E+00   0.4509956E+00  -0.1818182E+00   0.0000000E+00   0.0000000E+00   0.0000000E+00   0.0000000E+00
   0.2008477E+00   0.4578867E+00  -0.1818182E+00   0.0000000E+00   0.0000000E+00   0.0000000E+00   0.0000000E+00
   0.1855986E+00   0.4642770E+00  -0.1818182E+00   0.0000000E+00   0.0000000E+00   0.0000000E+00   0.0000000E+00
   0.1701466E+00   0.4701597E+00  -0.1818182E+00   0.0000000E+00   0.0000000E+00   0.0000000E+00   0.0000000E+00
   0.1545085E+00   0.4755283E+00  -0.1818182E+00   0.0000000E+00   0.0000000E+00   0.0000000E+00   0.0000000E+00
   0.1387015E+00   0.4803768E+00  -0.1818182E+00   0.0000000E+00   0.0000000E+00   0.0000000E+00   0.0000000E+00
   0.1227427E+00   0.4847001E+00  -0.1818182E+00   0.0000000E+00   0.0000000E+00   0.0000000E+00   0.0000000E+00
   0.1066498E+00   0.4884934E+00  -0.1818182E+00   0.0000000E+00   0.0000000E+00   0.0000000E+00   0.0000000E+00
   0.9044027E-01   0.4917525E+00  -0.1818182E+00   0.0000000E+00   0.0000000E+00   0.0000000E+00   0.0000000E+00
   0.7413182E-01   0.4944739E+00  -0.1818182E+00   0.0000000E+00   0.0000000E+00   0.0000000E+00   0.0000000E+00
   0.5774232E-01   0.4966546E+00  -0.1818182E+00   0.0000000E+00   0.0000000E+00   0.0000000E+00   0.0000000E+00
   0.4128967E-01   0.4982922E+00  -0.1818182E+00   0.0000000E+00   0.0000000E+00   0.0000000E+00   0.0000000E+00
   0.2479188E-01   0.4993850E+00  -0.1818182E+00   0.0000000E+00   0.0000000E+00   0.0000000E+00   0.0000000E+00
   0.8266972E-02   0.4999317E+00  -0.1818182E+00   0.0000000E+00   0.0000000E+00   0.0000000E+00   0.0000000E+00
  -0.8266972E-02   0.4999317E+00  -0.1818182E+00   0.0000000E+00   0.0000000E+00   0.0000000E+00   0.0000000E+00
  -0.2479188E-01   0.4993850E+00  -0.1818182E+00   0.0000000E+00   0.0000000E+00   0.0000000E+00   0.0000000E+00
  -0.4128967E-01   0.4982922E+00  -0.1818182E+00   0.0000000E+00   0.0000000E+00   0.0000000E+00   0.0000000E+00
  -0.5774232E-01   0.4966546E+00  -0.1818182E+00   0.0000000E+00   0.0000000E+00   0.0000000E+00   0.0000000E+00
  -0.7413182E-01   0.4944739E+00  -0.1818182E+00   0.0000000E+00   0.0000000E+00   0.0000000E+00   0.0000000E+00
  -0.9044027E-01   0.4917525E+00  -0.1818182E+00   0.0000000E+00   0.0000000E+00   0.0000000E+00   0.0000000E+00
  -0.1066498E+00   0.4884934E+00  -0.1818182E+00   0.0000000E+00   0.0000000E+00   0.0000000E+00   0.0000000E+00
  -0.1227427E+00   0.4847001E+00  -0.1818182E+00   0.0000000E+00   0.0000000E+00   0.0000000E+00   0.0000000E+00
  -0.1387015E+00   0.4803768E+00  -0.1818182E+00   0.0000000E+00   0.0000000E+00   0.0000000E+00   0.0000000E+00
  -0.1545085E+00   0.4755283E+00  -0.1818182E+00   0.0000000E+00   0.0000000E+00   0.0000000E+00   0.0000000E+00
  -0.1701466E+00   0.4701597E+00  -0.1818182E+00   0.0000000E+00   0.0000000E+00   0.0000000E+00   0.0000000E+00
  -0.1855986E+00   0.4642770E+00  -0.1818182E+00   0.0000000E+00   0.0000000E+00   0.0000000E+00   0.0000000E+00
  -0.2008477E+00   0.4578867E+00  -0.1818182E+00   0.0000000E+00   0.0000000E+00   0.0000000E+00   0.0000000E+00
  -0.2158772E+00   0.4509956E+00  -0.1818182E+00   0.0000000E+00   0.0000000E+00   0.0000000E+00   0.0000000E+00
  -0.2306706E+00   0.4436114E+00  -0.1818182E+00   0.0000000E+00   0.0000000E+00   0.0000000E+00   0.0000000E+00
  -0.2452118E+00   0.4357421E+00  -0.1818182E+00   0.0000000E+00   0.0000000E+00   0.0000000E+00   0.0000000E+00
  -0.2594848E+00   0.4273964E+00  -0.1818182E+00   0.0000000E+00   0.0000000E+00   0.0000000E+00   0.0000000E+00
  -0.2734741E+00   0.4185832E+00  -0.1818182E+00   0.0000000E+00   0.0000000E+00   0.0000000E+00   0.0000000E+00
  -0.2871643E+00   0.4093124E+00  -0.1818182E+00   0.0000000E+00   0.0000000E+00   0.0000000E+00   0.0000000E+00
  -0.3005406E+00   0.3995940E+00  -0.1818182E+00   0.0000000E+00   0.0000000E+00   0.0000000E+00   0.0000000E+00
  -0.3135882E+00   0.3894386E+00  -0.1818182E+00   0.0000000E+00   0.0000000E+00   0.0000000E+00   0.0000000E+00
  -0.3262929E+00   0.3788574E+00  -0.1818182E+00   0.0000000E+00   0.0000000E+00   0.0000000E+00   0.0000000E+00
  -0.3386408E+00   0.3678620E+00  -0.1818182E+00   0.0000000E+00   0.0000000E+00   0.0000000E+00   0.0000000E+00
  -0.3506184E+00   0.3564642E+00  -0.1818182E+00   0.0000000E+00   0.0000000E+00   0.0000000E+00   0.0000000E+00