VARIABLES="w (rad/s)"
"abs(F   1   1)" "angle(F   1   1)"
"abs(F   1   2)" "angle(F   1   2)"
"abs(F   1   3)" "angle(F   1   3)"
"abs(F   1   4)" "angle(F   1   4)"
"abs(F   1   5)" "angle(F   1   5)"
"abs(F   1   6)" "angle(F   1   6)"
Zone t="FKforce - beta =   0.000",I=    60,F=POINT
  0.5000000E-01  0.6720666E+04 -0.1570798E+01  0.3466797E-01 -0.2200704E-03  0.2008497E+07 -0.1329495E-10  0.9948730E+00 -0.5655675E-04  0.5681940E+04  0.1570368E+01  0.2163317E-01 -0.1173560E+00
  0.1000000E+00  0.1456377E+05 -0.1570822E+01  0.9765771E-02  0.5468695E-02  0.2000834E+07 -0.3050486E-10  0.1458008E+01  0.8110767E-04  0.1233615E+05  0.1570639E+01  0.7867752E-02 -0.3023011E+01
  0.1500000E+00  0.2525520E+05 -0.1570806E+01  0.1171875E-01  0.0000000E+00  0.1988098E+07  0.5372549E-10  0.3564454E+00 -0.7598457E-03  0.2145949E+05  0.1570848E+01  0.4688335E-01  0.1887797E-01
  0.2000000E+00  0.4115423E+05 -0.1570796E+01  0.4150503E-01  0.3134240E+01  0.1970336E+07  0.1393966E-09  0.3608398E+00 -0.1691475E-03  0.3512140E+05  0.1570794E+01  0.2442329E-01 -0.1410167E+01
  0.2500000E+00  0.6310223E+05 -0.1570790E+01  0.6835962E-01  0.2678565E-02  0.1947672E+07 -0.7834373E-11  0.1008545E+01  0.3141003E+01  0.5414850E+05  0.1570824E+01  0.2630358E+00 -0.6525972E+00
  0.3000000E+00  0.9013748E+05 -0.1570794E+01  0.1954078E-02 -0.3123983E-01  0.1920215E+07  0.4767838E-10  0.1369629E+01  0.3141348E+01  0.7785709E+05  0.1570786E+01  0.9097801E-01  0.2358092E+01
  0.3500000E+00  0.1216435E+06 -0.1570797E+01  0.1401367E+00  0.3140939E+01  0.1888112E+07 -0.2424453E-09  0.2522949E+01  0.3141369E+01  0.1058682E+06  0.1570787E+01  0.1743941E+00 -0.8058354E-01
  0.4000000E+00  0.1573153E+06 -0.1570797E+01  0.2197274E-01 -0.3138815E+01  0.1851519E+07  0.3296491E-09  0.7221681E+00 -0.5070993E-03  0.1380772E+06  0.1570781E+01  0.3980690E-01  0.2473557E+01
  0.4500000E+00  0.1968578E+06 -0.1570794E+01  0.6591842E-01  0.3137889E+01  0.1810645E+07 -0.1011272E-09  0.1795166E+01  0.3141049E+01  0.1743936E+06  0.1570811E+01  0.2332330E+00  0.2362856E+01
  0.5000000E+00  0.2399409E+06 -0.1570797E+01  0.3418165E-01  0.3130879E+01  0.1765701E+07 -0.1693787E-08  0.1604492E+01  0.3141098E+01  0.2146895E+06  0.1570798E+01  0.2192629E+00 -0.5784291E+00
  0.5500000E+00  0.2861973E+06 -0.1570796E+01  0.7813454E-02  0.3125969E+01  0.1716934E+07 -0.7109786E-09  0.1662358E+01 -0.2368185E-02  0.2587955E+06  0.1570797E+01  0.1969657E+00  0.2611377E+01
  0.6000000E+00  0.3352242E+06 -0.1570796E+01  0.3076196E-01 -0.3968233E-02  0.1664612E+07 -0.1209988E-08  0.1966233E+00  0.3111322E+01  0.3064909E+06  0.1570794E+01  0.2212491E+00  0.1748281E+01
  0.6500000E+00  0.3865839E+06 -0.1570797E+01  0.1468095E-01 -0.6656817E-01  0.1609027E+07  0.5310616E-09  0.1926035E+01 -0.3138455E+01  0.3574973E+06  0.1570800E+01  0.3776823E+00  0.1991646E+01
  0.7000000E+00  0.4398061E+06 -0.1570797E+01  0.1088936E+00 -0.1121029E-01  0.1550482E+07  0.2125725E-08  0.1542922E-01 -0.3062394E+01  0.4114738E+06  0.1570795E+01  0.2908882E+00  0.2090775E+01
  0.7500000E+00  0.4943905E+06 -0.1570797E+01  0.4760742E-02 -0.2746802E+01  0.1489315E+07  0.1229461E-08  0.1540041E+01 -0.1466391E-02  0.4680118E+06  0.1570793E+01  0.2890641E+00  0.1788732E+01
  0.8000000E+00  0.5498098E+06 -0.1570797E+01  0.1808660E-01  0.3094331E+01  0.1425873E+07  0.3510049E-08  0.8889162E+00 -0.3140975E+01  0.5266361E+06  0.1570795E+01  0.1182407E+00  0.1960505E+01
  0.8500000E+00  0.6055096E+06 -0.1570797E+01  0.2054411E-01  0.3082139E+01  0.1360514E+07 -0.4306737E-08  0.1677266E+01 -0.3136716E+01  0.5867990E+06  0.1570796E+01  0.4678387E+00 -0.1411481E+01
  0.9000000E+00  0.6609176E+06 -0.1570797E+01  0.3079658E-01  0.3094010E+01  0.1293614E+07 -0.2830913E-08  0.1047854E+01  0.2096921E-02  0.6478826E+06  0.1570796E+01  0.1086255E+01 -0.1659014E+01
  0.9500000E+00  0.7154454E+06 -0.1570796E+01  0.4497558E-01 -0.4887409E-01  0.1225557E+07 -0.1593664E-08  0.3589614E-01 -0.2040533E-01  0.7092065E+06  0.1570797E+01  0.3564600E+00 -0.1129204E+01
  0.1000000E+01  0.7684907E+06 -0.1570796E+01  0.4521350E-01  0.1136387E+00  0.1156730E+07 -0.1477428E-08  0.3244688E+00 -0.6019491E-02  0.7700231E+06  0.1570798E+01  0.5006443E+00 -0.1520059E+01
  0.1050000E+01  0.8194469E+06 -0.1570797E+01  0.4297153E-01  0.3130229E+01  0.1087525E+07 -0.2581657E-08  0.1178237E+01  0.3136723E+01  0.8295376E+06  0.1570797E+01  0.1693512E+00  0.1501543E+01
  0.1100000E+01  0.8677052E+06 -0.1570797E+01  0.3955153E-01 -0.3135420E+01  0.1018332E+07  0.1438474E-08  0.5839869E+00 -0.2926413E-02  0.8869128E+06  0.1570797E+01  0.1314737E+00  0.1951303E+01
  0.1150000E+01  0.9126668E+06 -0.1570796E+01  0.3877150E-01  0.3040671E+01  0.9495366E+06  0.8741929E-08  0.3225334E+00 -0.3129481E+01  0.9412734E+06  0.1570797E+01  0.4583023E+00 -0.1158630E+01
  0.1200000E+01  0.9537406E+06 -0.1570796E+01  0.1666606E-01  0.3053585E+01  0.8815148E+06 -0.4431293E-08  0.2390381E+00  0.1429933E-01  0.9917331E+06  0.1570796E+01  0.1293789E+00 -0.1066630E+01
  0.1250000E+01  0.9903579E+06 -0.1570796E+01  0.4567192E-01  0.1071153E+00  0.8146288E+06  0.5993911E-09  0.2616049E+00  0.3133660E+01  0.1037401E+07  0.1570797E+01  0.1285348E+01 -0.1513022E+01
  0.1300000E+01  0.1021975E+07 -0.1570796E+01  0.3323542E-01  0.3097504E+01  0.7492233E+06  0.6517166E-09  0.3944213E-02 -0.3805064E+00  0.1077404E+07  0.1570797E+01  0.1550368E+00 -0.1904498E+01
  0.1350000E+01  0.1048085E+07 -0.1570796E+01  0.8301356E-01  0.3129828E+01  0.6856216E+06 -0.4985212E-08  0.6748182E+00  0.6331319E-02  0.1110906E+07  0.1570796E+01  0.1220717E+01 -0.1565996E+01
  0.1400000E+01  0.1068221E+07 -0.1570796E+01  0.3006500E-01  0.3092851E+01  0.6241242E+06  0.6454357E-08  0.2960834E+00 -0.3120977E+01  0.1137123E+07  0.1570796E+01  0.1259804E+01 -0.1578548E+01
  0.1450000E+01  0.1081968E+07 -0.1570796E+01  0.3565791E-01  0.2739041E-01  0.5650019E+06 -0.1317923E-07  0.4202579E+00 -0.3120678E+01  0.1155338E+07  0.1570797E+01  0.5083090E+00 -0.1526594E+01
  0.1500000E+01  0.1088966E+07 -0.1570796E+01  0.5052944E-01 -0.3044809E+01  0.5084963E+06 -0.1200307E-07  0.4440919E+00  0.3141043E+01  0.1164935E+07  0.1570797E+01  0.3138703E+00 -0.1664273E+01
  0.1550000E+01  0.1088918E+07 -0.1570796E+01  0.3605106E-01  0.3046641E+01  0.4548172E+06  0.0000000E+00  0.2791748E+00  0.0000000E+00  0.1165399E+07  0.1570796E+01  0.3891574E-01  0.1264917E+01
  0.1600000E+01  0.1081603E+07 -0.1570796E+01  0.5203862E-01  0.3754104E-01  0.4041332E+06  0.1419657E-07  0.2044313E-01 -0.1076899E+00  0.1156348E+07  0.1570796E+01  0.7832251E+00 -0.1578277E+01
  0.1650000E+01  0.1066870E+07 -0.1570796E+01  0.2372690E-01 -0.3079816E+01  0.3565832E+06 -0.6161999E-08  0.7117861E-02 -0.1467715E+01  0.1137539E+07  0.1570796E+01  0.2218753E+01  0.1572557E+01
  0.1700000E+01  0.1044653E+07 -0.1570796E+01  0.1185277E-01  0.2576443E+01  0.3122654E+06  0.3909185E-08  0.1574780E+00  0.2946026E-01  0.1108880E+07  0.1570796E+01  0.6898350E+00 -0.1604070E+01
  0.1750000E+01  0.1014979E+07 -0.1570796E+01  0.1111912E-01  0.3097665E+01  0.2712416E+06 -0.1305124E-07  0.1406422E+00 -0.3115551E+01  0.1070446E+07  0.1570796E+01  0.4492211E+00 -0.1574057E+01
  0.1800000E+01  0.9779619E+06 -0.1570796E+01  0.3265746E-01  0.3126641E+01  0.2335362E+06  0.6272447E-08  0.1016285E+00  0.3105551E+01  0.1022468E+07  0.1570796E+01  0.1043016E+01  0.1580276E+01
  0.1850000E+01  0.9338081E+06 -0.1570796E+01  0.2704326E-01 -0.2941652E+01  0.1991371E+06 -0.9807942E-08  0.1569022E+00 -0.3126032E+01  0.9653600E+06  0.1570796E+01  0.5883817E-01 -0.1844964E+01
  0.1900000E+01  0.8828265E+06 -0.1570796E+01  0.1842291E-01  0.1597021E+00  0.1679995E+06 -0.3633056E-08  0.8675529E-01  0.2991885E+01  0.8997036E+06  0.1570796E+01  0.7111092E+00  0.1548822E+01
  0.1950000E+01  0.8254211E+06 -0.1570796E+01  0.7708815E-02  0.1911845E+00  0.1400470E+06 -0.1307457E-07  0.8999886E-01  0.3021948E+01  0.8262372E+06  0.1570796E+01  0.4221465E+00  0.1534932E+01
  0.2000000E+01  0.7620876E+06 -0.1570796E+01  0.7952391E-02  0.3120421E+00  0.1151725E+06 -0.3391651E-07  0.5421575E-01 -0.2955899E+01  0.7458559E+06  0.1570796E+01  0.3554718E+00 -0.1566675E+01
  0.2050000E+01  0.6934289E+06 -0.1570796E+01  0.4179014E-02 -0.1171087E+00  0.9324555E+05 -0.7134745E-07  0.6881345E-01  0.7813244E-01  0.6595969E+06  0.1570796E+01  0.5473108E-01 -0.1841743E+01
  0.2100000E+01  0.6201278E+06 -0.1570796E+01  0.1074219E-01  0.0000000E+00  0.7411082E+05  0.4117830E-07  0.5864459E-01 -0.4164258E-01  0.5686248E+06  0.1570796E+01  0.3597145E+00  0.1527345E+01
  0.2150000E+01  0.5429590E+06 -0.1570796E+01  0.1102965E-01  0.3052937E+01  0.5759673E+05  0.2119397E-08  0.8181043E-01 -0.3117717E+01  0.4742069E+06  0.1570796E+01  0.3555345E+00  0.1590025E+01
  0.2200000E+01  0.4627776E+06 -0.1570796E+01  0.2049182E-01  0.2876385E+01  0.4351611E+05  0.5329833E-07  0.2880704E-01  0.2439509E+00  0.3776826E+06  0.1570796E+01  0.1919337E+00  0.1355439E+01
  0.2250000E+01  0.3805061E+06 -0.1570796E+01  0.2416869E-02 -0.7853982E+00  0.3167145E+05 -0.1021382E-06  0.5715185E-02  0.2792822E+01  0.2804600E+06  0.1570797E+01  0.5040425E-01 -0.2521343E+01
  0.2300000E+01  0.2971316E+06 -0.1570796E+01  0.1221679E-01  0.3101614E+01  0.2185909E+05 -0.1465910E-06  0.1398438E-01 -0.2368540E+01  0.1839681E+06  0.1570796E+01  0.2494061E+00 -0.1168475E+01
  0.2350000E+01  0.2136880E+06 -0.1570796E+01  0.9264485E-02  0.2819842E+01  0.1387266E+05 -0.4949630E-07  0.8765294E-02  0.2916882E+01  0.8963625E+05  0.1570795E+01  0.1634335E+00  0.1824470E+01
  0.2400000E+01  0.1312463E+06 -0.1570796E+01  0.5960232E-02 -0.9600704E+00  0.7506711E+04 -0.5122369E-06  0.1004617E-01 -0.2050747E+01  0.1135207E+04 -0.1570505E+01  0.7128237E-01 -0.1405648E+01
  0.2450000E+01  0.5089640E+05 -0.1570796E+01  0.2762136E-02  0.7853982E+00  0.2560318E+04 -0.1194925E-05  0.4882812E-03  0.0000000E+00  0.8700362E+05 -0.1570795E+01  0.2321694E+00  0.1722806E+01
  0.2500000E+01  0.2626966E+05  0.1570796E+01  0.3662109E-02  0.1570796E+01  0.1160227E+04 -0.3141591E+01  0.5602282E-03  0.5123895E+00  0.1667146E+06 -0.1570797E+01  0.1493797E+00 -0.1862566E+01
  0.2550000E+01  0.9917389E+05  0.1570796E+01  0.8953881E-02 -0.2757289E+01  0.3838659E+04 -0.3141592E+01  0.2948857E-02  0.1140858E+00  0.2391259E+06 -0.1570797E+01  0.1419616E+00 -0.1204981E+01
  0.2600000E+01  0.1667762E+06  0.1570796E+01  0.5880323E-02 -0.3057158E+01  0.5646737E+04 -0.3141593E+01  0.2913912E-02 -0.5774729E+00  0.3032366E+06 -0.1570797E+01  0.9538186E-01  0.2084545E+01
  0.2650000E+01  0.2280909E+06  0.1570797E+01  0.6089156E-02  0.4905469E+00  0.6742544E+04 -0.3141593E+01  0.1460973E-01 -0.1678959E+00  0.3582033E+06 -0.1570796E+01  0.2897505E+00 -0.1455952E+01
  0.2700000E+01  0.2822102E+06  0.1570796E+01  0.1695855E-02 -0.5280744E+00  0.7269288E+04 -0.3141593E+01  0.8130286E-02 -0.2292451E+01  0.4033633E+06 -0.1570796E+01  0.4503478E+00  0.1544772E+01
  0.2750000E+01  0.3283286E+06  0.1570796E+01  0.2932230E-02  0.3099950E+01  0.7354669E+04 -0.3141593E+01  0.5134214E-02 -0.3142319E+00  0.4382466E+06 -0.1570796E+01  0.5040917E+00 -0.1597921E+01
  0.2800000E+01  0.3657588E+06  0.1570796E+01  0.1314737E-02 -0.1190290E+01  0.7110520E+04 -0.3141593E+01  0.1710074E-01  0.3569911E-01  0.4625892E+06 -0.1570796E+01  0.1621094E+00 -0.1570796E+01
  0.2850000E+01  0.3939558E+06  0.1570796E+01  0.1006618E-02  0.2449787E+00  0.6633012E+04  0.3141593E+01  0.1469921E-02  0.1653938E+01  0.4763391E+06 -0.1570796E+01  0.1627816E+00 -0.1913417E+01
  0.2900000E+01  0.4125391E+06  0.1570796E+01  0.3173828E-02  0.3141593E+01  0.6003076E+04 -0.3141593E+01  0.2071602E-02  0.7853982E+00  0.4796592E+06 -0.1570796E+01  0.1846349E+00 -0.1597245E+01
  0.2950000E+01  0.4213029E+06  0.1570796E+01  0.3662109E-02  0.3141593E+01  0.5287204E+04 -0.3141593E+01  0.1417330E-01  0.4307678E-01  0.4729204E+06 -0.1570796E+01  0.1381068E-01 -0.1428899E+01
  0.3000000E+01  0.4202368E+06  0.1570796E+01  0.3088162E-02 -0.3217506E+00  0.4538553E+04 -0.3141593E+01  0.6424657E-02  0.2892006E+01  0.4566954E+06 -0.1570796E+01  0.2818529E-01  0.1325818E+01
