VARIABLES="w (rad/s)"
"abs(F   1   1)" "angle(F   1   1)"
"abs(F   1   2)" "angle(F   1   2)"
"abs(F   1   3)" "angle(F   1   3)"
"abs(F   1   4)" "angle(F   1   4)"
"abs(F   1   5)" "angle(F   1   5)"
"abs(F   1   6)" "angle(F   1   6)"
Zone t="FKforce - beta =   0.000",I=    60,F=POINT
  0.5000000E-01  0.6720673E+04 -0.1570842E+01  0.5859376E-01 -0.3141137E+01  0.2008501E+07 -0.6647466E-11  0.3691040E+01 -0.6459388E-06  0.5653894E+04  0.1570999E+01  0.3329276E-01  0.3068195E+01
  0.1000000E+00  0.1456378E+05 -0.1570784E+01  0.1250000E+00 -0.3141135E+01  0.2000837E+07  0.6100963E-10  0.3994141E+00  0.4417214E-03  0.1227524E+05  0.1570593E+01  0.1992907E+00 -0.3114715E+01
  0.1500000E+00  0.2525516E+05 -0.1570806E+01  0.5859392E-01  0.3139184E+01  0.1988096E+07 -0.1266388E-09  0.4970337E+01 -0.2379227E-04  0.2135340E+05  0.1570667E+01  0.2188577E+00 -0.3137920E-01
  0.2000000E+00  0.4115423E+05 -0.1570800E+01  0.1401367E+00  0.3141320E+01  0.1970338E+07 -0.1239080E-09  0.6723635E+00  0.7971358E-03  0.3494745E+05  0.1570692E+01  0.2851564E-01 -0.1070766E+01
  0.2500000E+00  0.6310213E+05 -0.1570801E+01  0.1123047E-01 -0.3140913E+01  0.1947672E+07 -0.2115280E-09  0.2945557E+00  0.3141023E+01  0.5387966E+05  0.1570768E+01  0.3553689E+00 -0.2961309E+01
  0.3000000E+00  0.9013757E+05 -0.1570802E+01  0.7128959E-01  0.3852721E-02  0.1920211E+07  0.2224995E-09  0.1807865E+00 -0.2004555E-02  0.7746936E+05  0.1570823E+01  0.8019862E-01  0.5017763E+00
  0.3500000E+00  0.1216436E+06 -0.1570794E+01  0.3369293E-01  0.3132082E+01  0.1888104E+07 -0.3555877E-09  0.2593262E+01 -0.4001129E-03  0.1053392E+06  0.1570779E+01  0.6846665E-01  0.4205777E+00
  0.4000000E+00  0.1573157E+06 -0.1570800E+01  0.2397463E+00 -0.3140447E+01  0.1851512E+07 -0.2802028E-09  0.1663574E+01  0.3141166E+01  0.1373852E+06  0.1570825E+01  0.1589686E+00  0.2811586E+01
  0.4500000E+00  0.1968587E+06 -0.1570797E+01  0.8251962E-01  0.3140113E+01  0.1810637E+07  0.4550744E-09  0.1931886E+01 -0.3140538E+01  0.1735155E+06  0.1570819E+01  0.4398853E+00  0.1900884E+01
  0.5000000E+00  0.2399428E+06 -0.1570796E+01  0.3466818E-01  0.3138072E+01  0.1765687E+07  0.4666595E-09  0.2018066E+01 -0.1587830E-03  0.2136040E+06  0.1570789E+01  0.5091306E+00  0.1470889E+01
  0.5500000E+00  0.2862005E+06 -0.1570798E+01  0.2197274E-01 -0.3138815E+01  0.1716917E+07  0.1386422E-08  0.5760658E+00  0.3134150E+01  0.2574816E+06  0.1570789E+01  0.5993020E+00  0.1721278E+01
  0.6000000E+00  0.3352298E+06 -0.1570797E+01  0.1467288E+00  0.2079864E-02  0.1664590E+07  0.2566675E-08  0.4360353E+00  0.8048710E-03  0.3049279E+06  0.1570788E+01  0.8645198E-01 -0.2412136E+01
  0.6500000E+00  0.3865931E+06 -0.1570798E+01  0.1242678E+00  0.3139628E+01  0.1608994E+07  0.3793374E-10  0.1313477E+01 -0.5343865E-03  0.3556647E+06  0.1570793E+01  0.5819921E+00 -0.1239229E+01
  0.7000000E+00  0.4398197E+06 -0.1570796E+01  0.3254090E-01  0.6569480E-01  0.1550445E+07 -0.4330285E-09  0.1897096E+00 -0.1142164E-01  0.4093531E+06  0.1570793E+01  0.7437024E+00  0.1518248E+01
  0.7500000E+00  0.4944117E+06 -0.1570796E+01  0.6181147E-02  0.1586553E+00  0.1489266E+07  0.1393434E-08  0.2907106E+01  0.3140469E+01  0.4655895E+06  0.1570802E+01  0.1107484E+00 -0.2487510E+01
  0.8000000E+00  0.5498386E+06 -0.1570795E+01  0.2376205E-01  0.8228799E-01  0.1425809E+07 -0.2654059E-08  0.4411339E-01 -0.4567458E-01  0.5238945E+06  0.1570796E+01  0.1101569E+00 -0.2494545E+01
  0.8500000E+00  0.6055498E+06 -0.1570797E+01  0.1788236E-01 -0.3059585E+01  0.1360439E+07  0.2871316E-08  0.6177995E+00 -0.3139271E+01  0.5837268E+06  0.1570797E+01  0.3539052E+00  0.1342550E+01
  0.9000000E+00  0.6609745E+06 -0.1570796E+01  0.5892343E-01 -0.3087703E+01  0.1293521E+07 -0.4718527E-08  0.6780835E+00 -0.1759811E-01  0.6444724E+06  0.1570796E+01  0.1113617E+01  0.1546240E+01
  0.9500000E+00  0.7155220E+06 -0.1570796E+01  0.3276673E-01  0.1345210E+00  0.1225450E+07  0.2191479E-08  0.2166139E+01 -0.3140578E+01  0.7054511E+06  0.1570796E+01  0.2175878E+00  0.1426678E+01
  0.1000000E+01  0.7685910E+06 -0.1570796E+01  0.8056641E-02  0.3141593E+01  0.1156603E+07  0.2427468E-08  0.1468755E+01 -0.3138850E+01  0.7659236E+06  0.1570796E+01  0.5410156E+00  0.1570796E+01
  0.1050000E+01  0.8195788E+06 -0.1570797E+01  0.3179832E-01 -0.6146096E-01  0.1087381E+07 -0.3367824E-08  0.6202399E+00 -0.3140215E+01  0.8250966E+06  0.1570799E+01  0.5472236E-01  0.2178598E+01
  0.1100000E+01  0.8678722E+06 -0.1570796E+01  0.2051072E-01 -0.1553643E+00  0.1018170E+07 -0.3836540E-08  0.7219276E+00  0.3138380E+01  0.8821327E+06  0.1570796E+01  0.1255580E+01 -0.1656457E+01
  0.1150000E+01  0.9128772E+06 -0.1570796E+01  0.1130374E+00  0.3139433E+01  0.9493575E+06 -0.6043355E-08  0.2220708E+01  0.2061343E-02  0.9361671E+06  0.1570796E+01  0.1328758E+01  0.1601669E+01
  0.1200000E+01  0.9539987E+06 -0.1570796E+01  0.9682877E-02  0.2553590E+01  0.8813168E+06 -0.6648432E-08  0.3457249E+00 -0.3107160E+01  0.9863103E+06  0.1570795E+01  0.3656571E-01 -0.9753864E+00
  0.1250000E+01  0.9906748E+06 -0.1570796E+01  0.1219790E+00  0.3091534E+01  0.8144118E+06  0.4346743E-08  0.3813069E+00 -0.2065028E-01  0.1031695E+07  0.1570796E+01  0.9965245E-01  0.1600200E+01
  0.1300000E+01  0.1022356E+07 -0.1570796E+01  0.3225984E-01 -0.4542328E-01  0.7489917E+06  0.8148976E-09  0.1039629E+01  0.5753474E-02  0.1071438E+07  0.1570797E+01  0.5043697E+00  0.1425066E+01
  0.1350000E+01  0.1048544E+07 -0.1570796E+01  0.1943948E-01  0.2023216E+00  0.6853741E+06 -0.3918367E-08  0.1320079E+01 -0.3976306E-02  0.1104705E+07  0.1570796E+01  0.3716074E-01 -0.1623379E+01
  0.1400000E+01  0.1068758E+07 -0.1570796E+01  0.2316121E-02 -0.3217506E+00  0.6238649E+06  0.1213141E-07  0.3934410E+00 -0.3135077E+01  0.1130718E+07  0.1570796E+01  0.1964071E+01 -0.1585216E+01
  0.1450000E+01  0.1082597E+07 -0.1570796E+01  0.5582872E-01 -0.2939051E+01  0.5647312E+06  0.7349321E-08  0.1918434E+00  0.3131412E+01  0.1148768E+07  0.1570796E+01  0.1471100E+01 -0.1547560E+01
  0.1500000E+01  0.1089692E+07 -0.1570796E+01  0.2128264E-01  0.2945322E+01  0.5082171E+06  0.8166570E-08  0.2021622E+00  0.1234937E+00  0.1158246E+07  0.1570796E+01  0.9228645E+00 -0.1565505E+01
  0.1550000E+01  0.1089744E+07 -0.1570796E+01  0.8206902E-02  0.2744513E+01  0.4545312E+06 -0.3491321E-08  0.4715620E+00  0.1216690E-01  0.1158637E+07  0.1570797E+01  0.7344165E+00 -0.1560158E+01
  0.1600000E+01  0.1082535E+07 -0.1570796E+01  0.1063134E-01  0.4594466E-01  0.4038465E+06 -0.1541572E-07  0.2727944E+00  0.1139063E+00  0.1149564E+07  0.1570796E+01  0.1183739E+01 -0.1586472E+01
  0.1650000E+01  0.1067912E+07 -0.1570796E+01  0.8426389E-02  0.3112615E+01  0.3562966E+06 -0.5139131E-08  0.4707952E+00 -0.3140037E+01  0.1130780E+07  0.1570796E+01  0.9941579E+00  0.1564903E+01
  0.1700000E+01  0.1045803E+07 -0.1570796E+01  0.8415772E-02  0.2723368E+01  0.3119834E+06 -0.5869077E-09  0.1715550E+00  0.2134658E-02  0.1102200E+07  0.1570796E+01  0.6601822E+00  0.1561921E+01
  0.1750000E+01  0.1016233E+07 -0.1570796E+01  0.3752908E-01  0.7814398E-01  0.2709667E+06  0.4054494E-08  0.1013948E+00  0.3062051E+01  0.1063891E+07  0.1570796E+01  0.1250000E+01 -0.1570503E+01
  0.1800000E+01  0.9793102E+06 -0.1570796E+01  0.1865356E-01 -0.2752276E+01  0.2332709E+06  0.2511833E-07  0.4975737E-01 -0.2898789E+01  0.1016105E+07  0.1570796E+01  0.5761992E+00 -0.1580542E+01
  0.1850000E+01  0.9352483E+06 -0.1570796E+01  0.2500075E-01  0.1866227E+00  0.1988841E+06 -0.1565129E-07  0.1801137E+00 -0.1558865E-01  0.9592365E+06  0.1570797E+01  0.1798830E+01 -0.1569269E+01
  0.1900000E+01  0.8843378E+06 -0.1570796E+01  0.5282980E-02  0.7036138E+00  0.1677625E+06  0.2401204E-07  0.1089677E+00  0.3473452E-01  0.8938748E+06  0.1570796E+01  0.1064101E+01 -0.1515934E+01
  0.1950000E+01  0.8269900E+06 -0.1570796E+01  0.4057805E-02 -0.1296629E+01  0.1398275E+06  0.1309510E-08  0.1479524E+00  0.6600564E-02  0.8207556E+06  0.1570796E+01  0.1507901E+01  0.1559948E+01
  0.2000000E+01  0.7636926E+06 -0.1570796E+01  0.1934150E-01  0.2833813E+01  0.1149731E+06  0.5308649E-09  0.2652680E-01  0.2301090E-01  0.7407718E+06  0.1570796E+01  0.1094413E+01  0.1605604E+01
  0.2050000E+01  0.6950386E+06 -0.1570796E+01  0.1190295E-01  0.4453011E+00  0.9306712E+05  0.1016519E-07  0.2197593E+00  0.4443798E-02  0.6549647E+06  0.1570796E+01  0.1688646E+01 -0.1584965E+01
  0.2100000E+01  0.6217118E+06 -0.1570796E+01  0.1514115E-01 -0.1056650E+01  0.7395468E+05 -0.1279223E-07  0.6696224E-01  0.3079572E+01  0.5644824E+06  0.1570796E+01  0.7001347E-01 -0.1972025E+01
  0.2150000E+01  0.5444853E+06 -0.1570796E+01  0.4864467E-02  0.3058789E+00  0.5746337E+05 -0.6904025E-08  0.2899652E-02 -0.1041207E+01  0.4705956E+06  0.1570797E+01  0.1656965E+00  0.1748541E+01
  0.2200000E+01  0.4642027E+06 -0.1570796E+01  0.1513869E-01 -0.3125465E+01  0.4340562E+05 -0.1406158E-08  0.3235692E-01 -0.3118955E+01  0.3746422E+06  0.1570797E+01  0.2287680E+00  0.1617770E+01
  0.2250000E+01  0.3817877E+06 -0.1570796E+01  0.1222898E-01 -0.5992816E-01  0.3158346E+05 -0.8164829E-07  0.1442136E-01  0.2655097E+00  0.2780182E+06  0.1570795E+01  0.5509907E+00 -0.1636421E+01
  0.2300000E+01  0.2982239E+06 -0.1570796E+01  0.4846053E-02  0.7140907E+00  0.2179275E+05 -0.9802481E-08  0.3612214E-01  0.3736034E+00  0.1821521E+06  0.1570796E+01  0.9100913E-01  0.1506369E+01
  0.2350000E+01  0.2145450E+06 -0.1570797E+01  0.1356025E-01  0.2734337E+01  0.1382681E+05  0.1280136E-06  0.1765468E-01 -0.2083939E+01  0.8846517E+05  0.1570799E+01  0.3667317E+00  0.1557482E+01
  0.2400000E+01  0.1318184E+06 -0.1570797E+01  0.3420148E-02 -0.3105894E+01  0.7479716E+04 -0.2652029E-06  0.1264934E-01  0.2895444E+01  0.1649538E+04 -0.1570783E+01  0.1378865E+00 -0.1670113E+01
  0.2450000E+01  0.5113720E+05 -0.1570799E+01  0.3734633E-02  0.2944197E+01  0.2550317E+04 -0.6596362E-06  0.2489756E-02  0.1973956E+00  0.8685745E+05 -0.1570793E+01  0.5385280E-01  0.1498197E+01
  0.2500000E+01  0.2640452E+05  0.1570802E+01  0.4394955E-02 -0.1738228E+01  0.1155312E+04 -0.3141592E+01  0.2916984E-02 -0.1612657E+01  0.1659128E+06 -0.1570794E+01  0.1859993E+00 -0.2099060E+01
  0.2550000E+01  0.9972521E+05  0.1570797E+01  0.2943998E-02  0.9863719E-01  0.3821056E+04 -0.3141593E+01  0.5253950E-02 -0.2279108E+01  0.2376816E+06 -0.1570797E+01  0.3590521E+00 -0.1625220E+01
  0.2600000E+01  0.1677771E+06  0.1570797E+01  0.2714564E-02  0.1389937E+01  0.5618752E+04 -0.3141593E+01  0.9887695E-02  0.0000000E+00  0.3011740E+06 -0.1570796E+01  0.9016039E-01  0.1296588E+01
  0.2650000E+01  0.2295682E+06  0.1570796E+01  0.2370177E-02 -0.2539305E+01  0.6706468E+04 -0.3141593E+01  0.4792329E-02 -0.1148766E+00  0.3555572E+06 -0.1570796E+01  0.1466781E+00  0.1356099E+01
  0.2700000E+01  0.2841805E+06  0.1570796E+01  0.6823938E-02  0.2677945E+01  0.7227375E+04 -0.3141593E+01  0.1101613E-01 -0.2918116E+01  0.4001758E+06 -0.1570796E+01  0.4742428E+00  0.1593449E+01
  0.2750000E+01  0.3307947E+06  0.1570796E+01  0.4888912E-02  0.4995840E-01  0.7309016E+04 -0.3141593E+01  0.1088622E-01 -0.2569918E+01  0.4345753E+06 -0.1570796E+01  0.1031938E+00 -0.1513986E+01
  0.2800000E+01  0.3687113E+06  0.1570796E+01  0.3417969E-02 -0.1570796E+01  0.7063073E+04 -0.3141593E+01  0.3345818E-02  0.2582522E+00  0.4584998E+06 -0.1570797E+01  0.1992881E+00  0.1713386E+01
  0.2850000E+01  0.3973697E+06  0.1570796E+01  0.3913872E-02  0.6241881E-01  0.6585502E+04 -0.3141593E+01  0.5187988E-02 -0.2988049E+01  0.4719066E+06 -0.1570796E+01  0.7730281E-01 -0.1507589E+01
  0.2900000E+01  0.4163693E+06  0.1570796E+01  0.2250865E-02 -0.2432966E+01  0.5956961E+04 -0.3141593E+01  0.1568604E-01  0.0000000E+00  0.4749693E+06 -0.1570796E+01  0.4950700E-01  0.1830128E+01
  0.2950000E+01  0.4254899E+06  0.1570796E+01  0.1847259E-02  0.1325515E+00  0.5243711E+04 -0.3141593E+01  0.1142988E-01 -0.5342505E-01  0.4680670E+06 -0.1570796E+01  0.1395946E+00  0.1405648E+01
  0.3000000E+01  0.4247047E+06  0.1570796E+01  0.1417909E-01 -0.3089915E+01  0.4498612E+04 -0.3141593E+01  0.8882503E-02 -0.2061564E-01  0.4517815E+06 -0.1570796E+01  0.7724623E+00  0.1572693E+01
