VARIABLES="w (rad/s)"  
"abs(F   1   1)" "angle(F   1   1)"
"abs(F   1   2)" "angle(F   1   2)"
"abs(F   1   3)" "angle(F   1   3)"
Zone t="Diffraction force - beta =   0.000 deg",I=    50,F=POINT
  0.2283000E+01  0.4856839E+04 -0.1354909E+01  0.8073526E+03 -0.2362424E+01  0.1817427E+04  0.1784621E+01
  0.2417204E+01  0.5090565E+04 -0.1325512E+01  0.8565705E+03 -0.2347450E+01  0.1893624E+04  0.1813767E+01
  0.2551408E+01  0.5304133E+04 -0.1293784E+01  0.9025675E+03 -0.2334291E+01  0.1960357E+04  0.1845225E+01
  0.2685612E+01  0.5493850E+04 -0.1259690E+01  0.9440719E+03 -0.2321910E+01  0.2016196E+04  0.1879035E+01
  0.2819816E+01  0.5655200E+04 -0.1223224E+01  0.9801249E+03 -0.2309689E+01  0.2059615E+04  0.1915195E+01
  0.2954021E+01  0.5784152E+04 -0.1184432E+01  0.1010720E+04 -0.2298376E+01  0.2089224E+04  0.1953657E+01
  0.3088224E+01  0.5876243E+04 -0.1143389E+01  0.1034905E+04 -0.2287166E+01  0.2103497E+04  0.1994345E+01
  0.3222429E+01  0.5927333E+04 -0.1100264E+01  0.1052807E+04 -0.2277061E+01  0.2101206E+04  0.2037091E+01
  0.3356633E+01  0.5933902E+04 -0.1055276E+01  0.1064923E+04 -0.2269995E+01  0.2081607E+04  0.2081666E+01
  0.3490837E+01  0.5893250E+04 -0.1008704E+01  0.1068505E+04 -0.2260846E+01  0.2044127E+04  0.2127784E+01
  0.3625041E+01  0.5803526E+04 -0.9609116E+00  0.1064917E+04 -0.2252383E+01  0.1988608E+04  0.2175076E+01
  0.3759245E+01  0.5664529E+04 -0.9123381E+00  0.1054700E+04 -0.2246714E+01  0.1915652E+04  0.2223107E+01
  0.3893449E+01  0.5475967E+04 -0.8635466E+00  0.1038531E+04 -0.2246658E+01  0.1826097E+04  0.2271302E+01
  0.4027653E+01  0.5244510E+04 -0.8146936E+00  0.1011764E+04 -0.2235813E+01  0.1723036E+04  0.2319451E+01
  0.4161857E+01  0.4970191E+04 -0.7666271E+00  0.9798730E+03 -0.2228726E+01  0.1607042E+04  0.2366722E+01
  0.4296062E+01  0.4660355E+04 -0.7197300E+00  0.9436708E+03 -0.2232489E+01  0.1481477E+04  0.2412711E+01
  0.4430265E+01  0.4320676E+04 -0.6743427E+00  0.9000620E+03 -0.2227667E+01  0.1349176E+04  0.2457043E+01
  0.4564469E+01  0.3958536E+04 -0.6308526E+00  0.8526032E+03 -0.2228814E+01  0.1213123E+04  0.2499292E+01
  0.4698673E+01  0.3579894E+04 -0.5894871E+00  0.8016014E+03 -0.2232011E+01  0.1075654E+04  0.2539135E+01
  0.4832878E+01  0.3191452E+04 -0.5504345E+00  0.7483159E+03 -0.2226028E+01  0.9393906E+03  0.2576298E+01
  0.4967082E+01  0.2799057E+04 -0.5137463E+00  0.6925825E+03 -0.2228980E+01  0.8065010E+03  0.2610659E+01
  0.5101286E+01  0.2408145E+04 -0.4793105E+00  0.6351952E+03 -0.2240628E+01  0.6788522E+03  0.2642167E+01
  0.5235490E+01  0.2022498E+04 -0.4469960E+00  0.5810512E+03 -0.2229895E+01  0.5575427E+03  0.2670518E+01
  0.5369694E+01  0.1646172E+04 -0.4164739E+00  0.5249396E+03 -0.2248837E+01  0.4436161E+03  0.2695491E+01
  0.5503898E+01  0.1281661E+04 -0.3871272E+00  0.4720996E+03 -0.2254647E+01  0.3376934E+03  0.2716574E+01
  0.5638103E+01  0.9315245E+03 -0.3575034E+00  0.4210143E+03 -0.2261119E+01  0.2402797E+03  0.2732625E+01
  0.5772306E+01  0.5975743E+03 -0.3235880E+00  0.3747826E+03 -0.2258542E+01  0.1515202E+03  0.2739545E+01
  0.5906510E+01  0.2813515E+03 -0.2650126E+00  0.3273574E+03 -0.2286072E+01  0.7141801E+02  0.2716100E+01
  0.6040714E+01  0.2704024E+02  0.1953403E+01  0.2879370E+03 -0.2293134E+01  0.5738452E+01  0.1142640E+01
  0.6174919E+01  0.2969022E+03  0.2767798E+01  0.2411727E+03 -0.2363271E+01  0.6434192E+02 -0.2245530E+00
  0.6309123E+01  0.5551613E+03  0.2815078E+01  0.2090597E+03 -0.2368467E+01  0.1197726E+03 -0.2519144E+00
  0.6443326E+01  0.7930706E+03  0.2839685E+01  0.1813261E+03 -0.2373696E+01  0.1676724E+03 -0.2533019E+00
  0.6577531E+01  0.1010013E+04  0.2857510E+01  0.1411771E+03 -0.2500027E+01  0.2083499E+03 -0.2490633E+00
  0.6711735E+01  0.1205440E+04  0.2872060E+01  0.1382079E+03 -0.2440643E+01  0.2420995E+03 -0.2431447E+00
  0.6845939E+01  0.1379366E+04  0.2884321E+01  0.1149978E+03 -0.2717852E+01  0.2694032E+03 -0.2371141E+00
  0.6980143E+01  0.1531277E+04  0.2895033E+01  0.5550416E+02 -0.2534403E+01  0.2906143E+03 -0.2312320E+00
  0.7114347E+01  0.1661321E+04  0.2904534E+01  0.6081816E+02 -0.2413236E+01  0.3061849E+03 -0.2258290E+00
  0.7248551E+01  0.1768930E+04  0.2912908E+01  0.6018471E+02 -0.2357842E+01  0.3164366E+03 -0.2208632E+00
  0.7382755E+01  0.1854387E+04  0.2920558E+01  0.6181475E+02 -0.2325641E+01  0.3217748E+03 -0.2161260E+00
  0.7516960E+01  0.1918075E+04  0.2927010E+01  0.4222417E+02 -0.2430483E+01  0.3224226E+03 -0.2129087E+00
  0.7651164E+01  0.1959468E+04  0.2932776E+01  0.3121792E+02 -0.2505511E+01  0.3187606E+03 -0.2100811E+00
  0.7785367E+01  0.1979257E+04  0.2937722E+01  0.1954307E+02 -0.2609995E+01  0.3111085E+03 -0.2082239E+00
  0.7919572E+01  0.1976538E+04  0.2941447E+01  0.1866511E+02 -0.2621579E+01  0.2996552E+03 -0.2075296E+00
  0.8053776E+01  0.1952273E+04  0.2944192E+01  0.1515592E+02 -0.2675609E+01  0.2845421E+03 -0.2079527E+00
  0.8187980E+01  0.1905309E+04  0.2945378E+01  0.8501981E+01 -0.2755389E+01  0.2652257E+03 -0.2103509E+00
  0.8322184E+01  0.1831959E+04  0.2943696E+01  0.8214849E+01 -0.2815363E+01  0.2398386E+03 -0.2167329E+00
  0.8456388E+01  0.1721075E+04  0.2934990E+01  0.5749771E+01 -0.2911840E+01  0.2026946E+03 -0.2332201E+00
  0.8590592E+01  0.1499013E+04  0.2895855E+01  0.3757021E+01 -0.3024958E+01  0.1182777E+03 -0.3049199E+00
  0.8724796E+01  0.2613860E+04 -0.2954987E+01  0.2178544E+01  0.3131969E+01  0.7318135E+03  0.1869007E+00
  0.8859000E+01  0.1691191E+04  0.3036187E+01  0.9942466E+00  0.2994944E+01  0.2776940E+03 -0.1207222E+00
