VARIABLES="w (rad/s)"  
"abs(F   1   1)" "angle(F   1   1)"
Zone t="Diffraction force - beta =   0.000 deg",I=    50,F=POINT
  0.2283000E+01  0.8154702E+03 -0.2362476E+01
  0.2417204E+01  0.8650333E+03 -0.2347526E+01
  0.2551408E+01  0.9113115E+03 -0.2334394E+01
  0.2685612E+01  0.9530206E+03 -0.2322043E+01
  0.2819816E+01  0.9891911E+03 -0.2309857E+01
  0.2954021E+01  0.1019816E+04 -0.2298582E+01
  0.3088224E+01  0.1043930E+04 -0.2287412E+01
  0.3222429E+01  0.1061667E+04 -0.2277350E+01
  0.3356633E+01  0.1073542E+04 -0.2270338E+01
  0.3490837E+01  0.1076760E+04 -0.2261238E+01
  0.3625041E+01  0.1072711E+04 -0.2252822E+01
  0.3759245E+01  0.1061955E+04 -0.2247208E+01
  0.3893449E+01  0.1045198E+04 -0.2247231E+01
  0.4027653E+01  0.1017684E+04 -0.2236411E+01
  0.4161857E+01  0.9849982E+03 -0.2229343E+01
  0.4296062E+01  0.9480104E+03 -0.2233176E+01
  0.4430265E+01  0.9035145E+03 -0.2228358E+01
  0.4564469E+01  0.8551795E+03 -0.2229523E+01
  0.4698673E+01  0.8032845E+03 -0.2232714E+01
  0.4832878E+01  0.7490671E+03 -0.2226567E+01
  0.4967082E+01  0.6924475E+03 -0.2229405E+01
  0.5101286E+01  0.6342512E+03 -0.2241014E+01
  0.5235490E+01  0.5792340E+03 -0.2229702E+01
  0.5369694E+01  0.5224105E+03 -0.2248492E+01
  0.5503898E+01  0.4688456E+03 -0.2253713E+01
  0.5638103E+01  0.4170757E+03 -0.2259404E+01
  0.5772306E+01  0.3701874E+03 -0.2255291E+01
  0.5906510E+01  0.3222112E+03 -0.2282024E+01
  0.6040714E+01  0.2821825E+03 -0.2286509E+01
  0.6174919E+01  0.2348708E+03 -0.2358000E+01
  0.6309123E+01  0.2019001E+03 -0.2358505E+01
  0.6443326E+01  0.1730371E+03 -0.2354996E+01
  0.6577531E+01  0.1310265E+03 -0.2492946E+01
  0.6711735E+01  0.1241755E+03 -0.2363184E+01
  0.6845939E+01  0.7278616E+02 -0.2628752E+01
  0.6980143E+01  0.7934950E+02 -0.2511444E+01
  0.7114347E+01  0.6839731E+02 -0.2476867E+01
  0.7248551E+01  0.6310003E+02 -0.2428747E+01
  0.7382755E+01  0.6226976E+02 -0.2395852E+01
  0.7516960E+01  0.4263098E+02 -0.2482803E+01
  0.7651164E+01  0.3139820E+02 -0.2549367E+01
  0.7785367E+01  0.1980933E+02 -0.2642711E+01
  0.7919572E+01  0.1850755E+02 -0.2659921E+01
  0.8053776E+01  0.1485488E+02 -0.2714137E+01
  0.8187980E+01  0.8435204E+01 -0.2790684E+01
  0.8322184E+01  0.7889489E+01 -0.2854663E+01
  0.8456388E+01  0.5441317E+01 -0.2951582E+01
  0.8590592E+01  0.3475472E+01 -0.3065292E+01
  0.8724796E+01  0.1956542E+01  0.3090826E+01
  0.8859000E+01  0.7728827E+00  0.2949716E+01
