VARIABLES="w (rad/s)"  
"abs(F   1   1)" "angle(F   1   1)"
"abs(F   1   2)" "angle(F   1   2)"
"abs(F   1   3)" "angle(F   1   3)"
"abs(F   1   4)" "angle(F   1   4)"
"abs(F   1   5)" "angle(F   1   5)"
"abs(F   1   6)" "angle(F   1   6)"
Zone t="Diffraction force - beta =  30.000 deg",I=    20,F=POINT
  0.9904544E+00  0.4325289E+03 -0.1570138E+01  0.2497247E+03 -0.1570138E+01  0.2679774E+03 -0.3049849E+01  0.2764563E+02  0.1571498E+01  0.4788342E+02 -0.1570095E+01  0.2042935E-06  0.1628050E+01
  0.1171454E+01  0.6014696E+03 -0.1569062E+01  0.3472639E+03 -0.1569062E+01  0.3623898E+03 -0.3021188E+01  0.3896066E+02  0.1572637E+01  0.6748164E+02 -0.1568953E+01  0.2835444E-06  0.1651043E+01
  0.1352454E+01  0.7968368E+03 -0.1566869E+01  0.4600607E+03 -0.1566870E+01  0.4626312E+03 -0.2991751E+01  0.5242927E+02  0.1574964E+01  0.9080949E+02 -0.1566629E+01  0.3751481E-06  0.1678310E+01
  0.1533453E+01  0.1018292E+04 -0.1562869E+01  0.5879189E+03 -0.1562867E+01  0.5642051E+03 -0.2962334E+01  0.6821960E+02  0.1579196E+01  0.1181590E+03 -0.1562399E+01  0.4788786E-06  0.1710126E+01
  0.1714453E+01  0.1265491E+04 -0.1556174E+01  0.7306412E+03 -0.1556174E+01  0.6629191E+03 -0.2933592E+01  0.8652175E+02  0.1586254E+01  0.1498590E+03 -0.1555338E+01  0.5952808E-06  0.1746973E+01
  0.1895452E+01  0.1537872E+04 -0.1545728E+01  0.8879001E+03 -0.1545728E+01  0.7549028E+03 -0.2905955E+01  0.1075468E+03  0.1597238E+01  0.1862756E+03 -0.1544354E+01  0.7247662E-06  0.1789355E+01
  0.2076452E+01  0.1834246E+04 -0.1530352E+01  0.1059014E+04 -0.1530352E+01  0.8368835E+03 -0.2879679E+01  0.1314952E+03  0.1613351E+01  0.2277542E+03 -0.1528242E+01  0.8680342E-06  0.1838055E+01
  0.2257452E+01  0.2152014E+04 -0.1508811E+01  0.1242474E+04 -0.1508811E+01  0.9066226E+03 -0.2855025E+01  0.1584692E+03  0.1635845E+01  0.2744751E+03 -0.1505748E+01  0.1025640E-05  0.1893639E+01
  0.2438451E+01  0.2486529E+04 -0.1479913E+01  0.1435610E+04 -0.1479913E+01  0.9618917E+03 -0.2831852E+01  0.1884350E+03  0.1665918E+01  0.3263749E+03 -0.1475675E+01  0.1198628E-05  0.1956804E+01
  0.2619451E+01  0.2830067E+04 -0.1442612E+01  0.1633952E+04 -0.1442611E+01  0.1001432E+04 -0.2810063E+01  0.2211246E+03  0.1704594E+01  0.3829953E+03 -0.1436998E+01  0.1387048E-05  0.2028008E+01
  0.2800450E+01  0.3171133E+04 -0.1396153E+01  0.1830875E+04 -0.1396154E+01  0.1025308E+04 -0.2789850E+01  0.2558555E+03  0.1752616E+01  0.4431502E+03 -0.1388977E+01  0.1590043E-05  0.2107661E+01
  0.2981450E+01  0.3493790E+04 -0.1340232E+01  0.2017164E+04 -0.1340230E+01  0.1032850E+04 -0.2770747E+01  0.2914854E+03  0.1810256E+01  0.5048607E+03 -0.1331337E+01  0.1806084E-05  0.2195461E+01
  0.3162450E+01  0.3778509E+04 -0.1275148E+01  0.2181566E+04 -0.1275147E+01  0.1025286E+04 -0.2753003E+01  0.3263829E+03  0.1877172E+01  0.5653011E+03 -0.1264420E+01  0.2031616E-05  0.2291073E+01
  0.3343449E+01  0.4003280E+04 -0.1201930E+01  0.2311346E+04 -0.1201928E+01  0.1003151E+04 -0.2736253E+01  0.3583735E+03  0.1952324E+01  0.6207061E+03 -0.1189270E+01  0.2262155E-05  0.2393190E+01
  0.3524449E+01  0.4147586E+04 -0.1122359E+01  0.2394659E+04 -0.1122357E+01  0.9684840E+03 -0.2720788E+01  0.3851101E+03  0.2033895E+01  0.6670163E+03 -0.1107701E+01  0.2492088E-05  0.2500196E+01
  0.3705448E+01  0.4195639E+04 -0.1038818E+01  0.2422397E+04 -0.1038817E+01  0.9224161E+03 -0.2706234E+01  0.4043246E+03  0.2119494E+01  0.7002977E+03 -0.1022102E+01  0.2716441E-05  0.2610039E+01
  0.3886448E+01  0.4140513E+04 -0.9540197E+00  0.2390557E+04 -0.9540172E+00  0.8677966E+03 -0.2693062E+01  0.4142765E+03  0.2206426E+01  0.7175365E+03 -0.9351679E+00  0.2931459E-05  0.2720615E+01
  0.4067448E+01  0.3984941E+04 -0.8705956E+00  0.2300729E+04 -0.8705921E+00  0.8060065E+03 -0.2680920E+01  0.4140860E+03  0.2292053E+01  0.7172120E+03 -0.8495426E+00  0.3135475E-05  0.2830163E+01
  0.4248447E+01  0.3740705E+04 -0.7907631E+00  0.2159702E+04 -0.7907589E+00  0.7395769E+03 -0.2670013E+01  0.4036850E+03  0.2374228E+01  0.6991990E+03 -0.7673691E+00  0.3329222E-05  0.2937697E+01
  0.4429447E+01  0.3425061E+04 -0.7161278E+00  0.1977459E+04 -0.7161228E+00  0.6705657E+03 -0.2660410E+01  0.3838162E+03  0.2451397E+01  0.6647887E+03 -0.6902021E+00  0.3513880E-05  0.3043180E+01
