VARIABLES="w (rad/s)"  
"abs(F   1   1)" "angle(F   1   1)"
"abs(F   1   2)" "angle(F   1   2)"
"abs(F   1   3)" "angle(F   1   3)"
"abs(F   1   4)" "angle(F   1   4)"
"abs(F   1   5)" "angle(F   1   5)"
"abs(F   1   6)" "angle(F   1   6)"
Zone t="Diffraction force - beta =   0.000 deg",I=    50,F=POINT
  0.1000000E+00  0.2057256E+03 -0.1570432E+01  0.1547071E-05 -0.2375266E+01  0.5065646E+01 -0.2825957E+01  0.5760114E-05  0.1718617E+01  0.1461975E+04 -0.1570432E+01  0.5827974E-13 -0.1547934E+01
  0.1387755E+00  0.2925586E+03 -0.1570091E+01  0.1717003E-05 -0.2008588E+01  0.9516936E+01 -0.2821571E+01  0.8372581E-05 -0.5971226E+00  0.2079915E+04 -0.1570091E+01  0.3197574E-13  0.1733410E+01
  0.1775510E+00  0.3738365E+03 -0.1569642E+01  0.1830731E-05  0.1330024E+01  0.1257830E+02 -0.2741590E+01  0.2776776E-04 -0.1629251E+01  0.2657730E+04 -0.1569641E+01  0.8327133E-13 -0.1557540E+01
  0.2163265E+00  0.4559385E+03 -0.1569081E+01  0.2239303E-05  0.2324095E+00  0.1854517E+02 -0.2739534E+01  0.8624872E-04 -0.2695136E+00  0.3241465E+04 -0.1569080E+01  0.7685498E-12 -0.1567796E+01
  0.2551020E+00  0.5379645E+03 -0.1568410E+01  0.6674135E-05 -0.9943256E+00  0.2482557E+02 -0.2723827E+01  0.5573801E-04  0.7957199E+00  0.3824655E+04 -0.1568408E+01  0.9027504E-12 -0.1558247E+01
  0.2938775E+00  0.6202862E+03 -0.1567628E+01  0.1027556E-04 -0.2872425E+01  0.3118195E+02 -0.2699578E+01  0.1963936E-04  0.2604364E+01  0.4409951E+04 -0.1567626E+01  0.9366500E-13 -0.1929567E+01
  0.3326530E+00  0.7037410E+03 -0.1566733E+01  0.7732383E-05 -0.4567670E+00  0.4134602E+02 -0.2716929E+01  0.8776283E-04  0.2978864E+00  0.5003515E+04 -0.1566730E+01  0.5957328E-12  0.1588652E+01
  0.3714286E+00  0.7847972E+03 -0.1565729E+01  0.1664075E-04 -0.2838985E+01  0.4887064E+02 -0.2692869E+01  0.7682742E-04  0.5994410E-01  0.5579597E+04 -0.1565726E+01  0.7550419E-12 -0.1596141E+01
  0.4102041E+00  0.8680415E+03 -0.1564610E+01  0.3890635E-05  0.2282119E+00  0.5769923E+02 -0.2678406E+01  0.2367919E-04 -0.2758187E+01  0.6171577E+04 -0.1564606E+01  0.3381031E-12  0.1568641E+01
  0.4489796E+00  0.9510022E+03 -0.1563379E+01  0.2204193E-05  0.1063698E+01  0.6722988E+02 -0.2665841E+01  0.1228430E-03  0.6287717E+00  0.6761477E+04 -0.1563375E+01  0.5181116E-12 -0.1641665E+01
  0.4877551E+00  0.1034222E+04 -0.1562035E+01  0.1032037E-04  0.2808707E+01  0.7737399E+02 -0.2654405E+01  0.1498639E-03 -0.2211581E+01  0.7353287E+04 -0.1562029E+01  0.7214003E-12 -0.1532354E+01
  0.5265306E+00  0.1117673E+04 -0.1560577E+01  0.5715813E-04 -0.3734526E-01  0.8808020E+02 -0.2643698E+01  0.3577057E-03  0.3079899E+01  0.7946750E+04 -0.1560570E+01  0.3890919E-12  0.1565989E+01
  0.5653061E+00  0.1201348E+04 -0.1559004E+01  0.1806819E-04 -0.2669188E+01  0.9932470E+02 -0.2633623E+01  0.3603655E-03 -0.3098936E+00  0.8541817E+04 -0.1558997E+01  0.4435363E-12  0.1360968E+01
  0.6040816E+00  0.1285203E+04 -0.1557316E+01  0.1482371E-04  0.3083265E+01  0.1110643E+03 -0.2623976E+01  0.3288339E-03  0.1326248E+00  0.9138229E+04 -0.1557308E+01  0.6872977E-12  0.1407701E+01
  0.6428572E+00  0.1369244E+04 -0.1555512E+01  0.3392315E-04  0.9896859E+00  0.1232688E+03 -0.2614679E+01  0.1843657E-03  0.1861245E+00  0.9735986E+04 -0.1555503E+01  0.7038858E-12 -0.1535097E+01
  0.6816327E+00  0.1453511E+04 -0.1553591E+01  0.1424399E-04  0.2628815E+01  0.1359049E+03 -0.2605650E+01  0.3890568E-03 -0.1051890E+01  0.1033538E+05 -0.1553581E+01  0.1880601E-11 -0.1532156E+01
  0.7204082E+00  0.1537949E+04 -0.1551553E+01  0.9639957E-05 -0.2468243E+01  0.1489663E+03 -0.2596941E+01  0.2678687E-03  0.2151172E+01  0.1093603E+05 -0.1551541E+01  0.1095293E-11 -0.1434848E+01
  0.7591837E+00  0.1622561E+04 -0.1549396E+01  0.4190693E-04 -0.2323357E+01  0.1624294E+03 -0.2588510E+01  0.9939924E-04  0.2512892E+01  0.1153797E+05 -0.1549383E+01  0.8740846E-12  0.1592398E+01
  0.7979592E+00  0.1707336E+04 -0.1547119E+01  0.5923984E-04 -0.4165939E+00  0.1762575E+03 -0.2580273E+01  0.3566450E-03  0.2855098E+01  0.1214113E+05 -0.1547105E+01  0.2653492E-11  0.1568660E+01
  0.8367347E+00  0.1792297E+04 -0.1544722E+01  0.5680836E-04  0.4622735E+00  0.1904421E+03 -0.2572268E+01  0.1893065E-03  0.3016300E+01  0.1274562E+05 -0.1544706E+01  0.2354512E-11 -0.1469620E+01
  0.8755102E+00  0.1877401E+04 -0.1542203E+01  0.6661112E-04  0.6069072E+00  0.2049707E+03 -0.2564494E+01  0.7174808E-03  0.2047009E+01  0.1335119E+05 -0.1542186E+01  0.1331707E-11 -0.1545101E+01
  0.9142857E+00  0.1962628E+04 -0.1539561E+01  0.3039551E-04 -0.2858121E+01  0.2198068E+03 -0.2556885E+01  0.1121580E-03  0.2357489E+00  0.1395770E+05 -0.1539543E+01  0.1515888E-11 -0.1463452E+01
  0.9530612E+00  0.2047974E+04 -0.1536795E+01  0.7689597E-04  0.5400394E+00  0.2349188E+03 -0.2549400E+01  0.2989708E-03 -0.9067971E+00  0.1456510E+05 -0.1536775E+01  0.6103833E-12 -0.1352729E+01
  0.9918368E+00  0.2133430E+04 -0.1533904E+01  0.1342071E-04  0.1321544E+01  0.2503529E+03 -0.2542215E+01  0.7674216E-03  0.2931304E+01  0.1517336E+05 -0.1533882E+01  0.1328851E-11  0.1493821E+01
  0.1030612E+01  0.2218967E+04 -0.1530888E+01  0.6420080E-04  0.1052778E+01  0.2659930E+03 -0.2535037E+01  0.5188993E-03  0.1566207E+01  0.1578221E+05 -0.1530864E+01  0.7104384E-12  0.1425984E+01
  0.1069388E+01  0.2304613E+04 -0.1527743E+01  0.4254274E-04 -0.4395237E+00  0.2818354E+03 -0.2527916E+01  0.6040453E-03 -0.1738368E+01  0.1639193E+05 -0.1527717E+01  0.4256663E-12 -0.1597576E+01
  0.1108163E+01  0.2390314E+04 -0.1524468E+01  0.2343264E-04  0.1357181E+00  0.2980498E+03 -0.2521336E+01  0.3474402E-03 -0.2595758E+01  0.1700211E+05 -0.1524441E+01  0.3749303E-11  0.1597051E+01
  0.1146939E+01  0.2476039E+04 -0.1521063E+01  0.4763702E-04  0.3043852E+01  0.3144208E+03 -0.2514755E+01  0.8844694E-03 -0.8958821E+00  0.1761250E+05 -0.1521034E+01  0.3404303E-12 -0.2406998E+01
  0.1185714E+01  0.2561776E+04 -0.1517525E+01  0.1336338E-04  0.2992964E+01  0.3308765E+03 -0.2508058E+01  0.1889561E-03 -0.2678140E+01  0.1822309E+05 -0.1517494E+01  0.2865026E-11  0.1589912E+01
  0.1224490E+01  0.2647493E+04 -0.1513855E+01  0.6781350E-04  0.5031262E+00  0.3476076E+03 -0.2501737E+01  0.3821924E-03  0.2468577E+01  0.1883360E+05 -0.1513822E+01  0.8518630E-12  0.1920004E+01
  0.1263265E+01  0.2733210E+04 -0.1510048E+01  0.5351648E-04 -0.6892439E+00  0.3644554E+03 -0.2495448E+01  0.1030882E-02  0.2799722E+01  0.1944416E+05 -0.1510013E+01  0.1177068E-11  0.1789879E+01
  0.1302041E+01  0.2818875E+04 -0.1506105E+01  0.8525966E-04 -0.1734000E+01  0.3814981E+03 -0.2489401E+01  0.1476432E-02 -0.1443544E+01  0.2005443E+05 -0.1506068E+01  0.3589616E-11 -0.1573374E+01
  0.1340816E+01  0.2904487E+04 -0.1502024E+01  0.3513598E-04 -0.1441927E+01  0.3985944E+03 -0.2483318E+01  0.6773537E-03 -0.2197759E+01  0.2066441E+05 -0.1501984E+01  0.2031591E-11  0.1348567E+01
  0.1379592E+01  0.2989958E+04 -0.1497800E+01  0.3559185E-04  0.2375800E+01  0.4157805E+03 -0.2477319E+01  0.9375353E-03  0.3681016E+00  0.2127347E+05 -0.1497759E+01  0.1262756E-11  0.1683597E+01
  0.1418367E+01  0.3075291E+04 -0.1493437E+01  0.2485284E-04  0.6938672E+00  0.4331550E+03 -0.2471628E+01  0.2267314E-03  0.3113719E+01  0.2188163E+05 -0.1493393E+01  0.6906445E-12  0.1936399E+01
  0.1457143E+01  0.3160463E+04 -0.1488927E+01  0.1196232E-03 -0.1849944E+01  0.4505355E+03 -0.2465904E+01  0.1819710E-02 -0.7244132E+00  0.2248876E+05 -0.1488881E+01  0.5135525E-11 -0.1563740E+01
  0.1495918E+01  0.3245351E+04 -0.1484272E+01  0.4247564E-04  0.2998360E+01  0.4673953E+03 -0.2459173E+01  0.1154920E-02  0.2144699E+00  0.2309396E+05 -0.1484223E+01  0.3545742E-11 -0.1668377E+01
  0.1534694E+01  0.3330151E+04 -0.1479470E+01  0.9745644E-04 -0.1218617E+01  0.4852670E+03 -0.2454418E+01  0.6296400E-03 -0.1213741E+01  0.2369864E+05 -0.1479419E+01  0.1586253E-11  0.1295802E+01
  0.1573469E+01  0.3414599E+04 -0.1474514E+01  0.7587348E-04  0.2536791E+01  0.5022252E+03 -0.2448000E+01  0.7037116E-03 -0.8570587E+00  0.2430084E+05 -0.1474461E+01  0.5508922E-11 -0.1625619E+01
  0.1612245E+01  0.3498781E+04 -0.1469410E+01  0.1019922E-03  0.4777638E+00  0.5197492E+03 -0.2442710E+01  0.2543360E-03  0.1886515E+01  0.2490133E+05 -0.1469355E+01  0.2016275E-11  0.1562274E+01
  0.1651020E+01  0.3582824E+04 -0.1464154E+01  0.1660479E-03 -0.2123616E+01  0.5381888E+03 -0.2439160E+01  0.1279735E-02  0.2075192E+01  0.2550089E+05 -0.1464096E+01  0.1209225E-12  0.2743070E+01
  0.1689796E+01  0.3666220E+04 -0.1458739E+01  0.1701201E-03  0.7734665E+00  0.5555563E+03 -0.2433799E+01  0.6001972E-03 -0.8459445E+00  0.2609597E+05 -0.1458678E+01  0.2909550E-11  0.1709484E+01
  0.1728571E+01  0.3749181E+04 -0.1453166E+01  0.5908343E-04  0.1914055E+01  0.5728904E+03 -0.2428541E+01  0.2208713E-02  0.2132892E+01  0.2668808E+05 -0.1453102E+01  0.5560749E-11  0.1628255E+01
  0.1767347E+01  0.3831677E+04 -0.1447433E+01  0.2837796E-04 -0.1306009E+01  0.5901714E+03 -0.2423373E+01  0.1621796E-02 -0.2940778E+01  0.2727701E+05 -0.1447366E+01  0.4730541E-11 -0.1631890E+01
  0.1806122E+01  0.3913644E+04 -0.1441537E+01  0.7423332E-04  0.1843917E+01  0.6073807E+03 -0.2418291E+01  0.1444865E-03  0.1998791E+00  0.2786227E+05 -0.1441468E+01  0.1777593E-11 -0.2199858E+01
  0.1844898E+01  0.3995028E+04 -0.1435478E+01  0.1108590E-03  0.1893802E+01  0.6244974E+03 -0.2413283E+01  0.1593330E-02  0.1249893E+01  0.2844351E+05 -0.1435406E+01  0.1190394E-11  0.1960505E+01
  0.1883674E+01  0.4075788E+04 -0.1429251E+01  0.1281864E-03  0.2413205E+01  0.6415150E+03 -0.2408365E+01  0.6151170E-03  0.2879429E+01  0.2902041E+05 -0.1429176E+01  0.1144121E-10  0.1384299E+01
  0.1922449E+01  0.4155883E+04 -0.1422854E+01  0.1710564E-03 -0.1265993E+01  0.6584134E+03 -0.2403525E+01  0.2095239E-02  0.1053912E+01  0.2959269E+05 -0.1422776E+01  0.1681046E-11  0.2070791E+01
  0.1961224E+01  0.4235252E+04 -0.1416288E+01  0.5702530E-04  0.1750100E+01  0.6751799E+03 -0.2398765E+01  0.3033099E-03  0.2919824E+01  0.3015997E+05 -0.1416207E+01  0.1338083E-11 -0.1549966E+01
  0.2000000E+01  0.4313849E+04 -0.1409549E+01  0.1318156E-03 -0.9698132E+00  0.6917980E+03 -0.2394078E+01  0.2514176E-02 -0.1304798E+01  0.3072184E+05 -0.1409464E+01  0.1865090E-11 -0.1793597E+01
