VARIABLES="w (rad/s)"  
Zone t="Diffraction force - beta =   0.000 deg",I=    20,F=POINT
  0.9904544E+00
  0.1171454E+01
  0.1352454E+01
  0.1533453E+01
  0.1714453E+01
  0.1895452E+01
  0.2076452E+01
  0.2257452E+01
  0.2438451E+01
  0.2619451E+01
  0.2800450E+01
  0.2981450E+01
  0.3162450E+01
  0.3343449E+01
  0.3524449E+01
  0.3705448E+01
  0.3886448E+01
  0.4067448E+01
  0.4248447E+01
  0.4429447E+01
