VARIABLES="w (rad/s)"  
"abs(F   1   1)" "angle(F   1   1)"
Zone t="Excitation force - beta =   0.000 deg",I=    50,F=POINT
  0.2283000E+01  0.5204266E+04 -0.1103240E+00
  0.2417204E+01  0.4951997E+04 -0.1249107E+00
  0.2551408E+01  0.4694304E+04 -0.1406951E+00
  0.2685612E+01  0.4433506E+04 -0.1577536E+00
  0.2819816E+01  0.4171572E+04 -0.1761706E+00
  0.2954021E+01  0.3908952E+04 -0.1960485E+00
  0.3088224E+01  0.3647975E+04 -0.2174899E+00
  0.3222429E+01  0.3388876E+04 -0.2405965E+00
  0.3356633E+01  0.3130846E+04 -0.2654665E+00
  0.3490837E+01  0.2881385E+04 -0.2922482E+00
  0.3625041E+01  0.2638628E+04 -0.3210858E+00
  0.3759245E+01  0.2401679E+04 -0.3520432E+00
  0.3893449E+01  0.2168948E+04 -0.3852422E+00
  0.4027653E+01  0.1959586E+04 -0.4207854E+00
  0.4161857E+01  0.1758467E+04 -0.4589529E+00
  0.4296062E+01  0.1560079E+04 -0.4997032E+00
  0.4430265E+01  0.1384403E+04 -0.5428211E+00
  0.4564469E+01  0.1217813E+04 -0.5887239E+00
  0.4698673E+01  0.1064506E+04 -0.6375719E+00
  0.4832878E+01  0.9331570E+03 -0.6895902E+00
  0.4967082E+01  0.8090412E+03 -0.7435063E+00
  0.5101286E+01  0.6930646E+03 -0.7997518E+00
  0.5235490E+01  0.6045583E+03 -0.8595406E+00
  0.5369694E+01  0.5105198E+03 -0.9225838E+00
  0.5503898E+01  0.4356737E+03 -0.9877682E+00
  0.5638103E+01  0.3705158E+03 -0.1053501E+01
  0.5772306E+01  0.3184301E+03 -0.1121296E+01
  0.5906510E+01  0.2626072E+03 -0.1193068E+01
  0.6040714E+01  0.2230365E+03 -0.1268791E+01
  0.6174919E+01  0.1700688E+03 -0.1345703E+01
  0.6309123E+01  0.1440657E+03 -0.1420179E+01
  0.6443326E+01  0.1228675E+03 -0.1493670E+01
  0.6577531E+01  0.7915422E+02 -0.1571588E+01
  0.6711735E+01  0.8742992E+02 -0.1644977E+01
  0.6845939E+01  0.3571394E+02 -0.1562988E+01
  0.6980143E+01  0.4913994E+02 -0.1883435E+01
  0.7114347E+01  0.4533552E+02 -0.1945472E+01
  0.7248551E+01  0.4576836E+02 -0.2018039E+01
  0.7382755E+01  0.4913782E+02 -0.2106621E+01
  0.7516960E+01  0.3210497E+02 -0.2192539E+01
  0.7651164E+01  0.2330581E+02 -0.2290451E+01
  0.7785367E+01  0.1375468E+02 -0.2381417E+01
  0.7919572E+01  0.1426614E+02 -0.2496852E+01
  0.8053776E+01  0.1199491E+02 -0.2602450E+01
  0.8187980E+01  0.6634781E+01 -0.2689296E+01
  0.8322184E+01  0.6874474E+01 -0.2810798E+01
  0.8456388E+01  0.4986874E+01 -0.2934025E+01
  0.8590592E+01  0.3402694E+01 -0.3063657E+01
  0.8724796E+01  0.2121763E+01  0.3094782E+01
  0.8859000E+01  0.1065792E+01  0.3002856E+01
