VARIABLES="w (rad/s)"  
"abs(F   1   1)" "angle(F   1   1)"
"abs(F   1   2)" "angle(F   1   2)"
"abs(F   1   3)" "angle(F   1   3)"
"abs(F   1   4)" "angle(F   1   4)"
"abs(F   1   5)" "angle(F   1   5)"
"abs(F   1   6)" "angle(F   1   6)"
Zone t="Excitation force - beta =   0.000 deg",I=    50,F=POINT
  0.1000000E+00  0.4295415E+03 -0.1570622E+01  0.3205461E-02 -0.3141277E+01  0.7717115E+04 -0.2037658E-03  0.4578741E-01  0.3141475E+01  0.3055090E+04 -0.1570622E+01  0.8756301E-11  0.3112335E+01
  0.1387755E+00  0.6031077E+03 -0.1570454E+01  0.9084373E-04 -0.2040014E-01  0.7709057E+04 -0.3883621E-03  0.2386384E-01 -0.2940432E-03  0.4290400E+04 -0.1570454E+01  0.2978293E-11 -0.3033885E+01
  0.1775510E+00  0.7710680E+03 -0.1570236E+01  0.1073401E-02  0.3140214E+01  0.7701434E+04 -0.6360175E-03  0.4298169E-01 -0.5530359E-03  0.5485230E+04 -0.1570236E+01  0.1932173E-11  0.3116652E+01
  0.2163265E+00  0.9397860E+03 -0.1569964E+01  0.4455838E-02  0.1960104E-03  0.7689630E+04 -0.9437363E-03  0.2575654E-01 -0.3140505E+01  0.6685522E+04 -0.1569964E+01  0.3392234E-11 -0.5114415E+00
  0.2551020E+00  0.1108348E+04 -0.1569638E+01  0.8901776E-02 -0.3140810E+01  0.7676450E+04 -0.1312095E-02  0.2723788E-01  0.3139965E+01  0.7884708E+04 -0.1569638E+01  0.9241594E-12 -0.8498988E-01
  0.2938775E+00  0.1277111E+04 -0.1569257E+01  0.1863851E-02 -0.3140030E+01  0.7662157E+04 -0.1740820E-02  0.1767083E-01  0.3140986E+01  0.9085341E+04 -0.1569257E+01  0.1677117E-11  0.2890449E+01
  0.3326530E+00  0.1446899E+04 -0.1568820E+01  0.2858428E-02 -0.1276498E-02  0.7642630E+04 -0.2228966E-02  0.2718386E-02  0.3130808E+01  0.1029348E+05 -0.1568820E+01  0.8442465E-11  0.2964064E+01
  0.3714286E+00  0.1614164E+04 -0.1568332E+01  0.3602359E-02 -0.1326991E-02  0.7625000E+04 -0.2780442E-02  0.5294370E-02  0.7081396E-03  0.1148327E+05 -0.1568332E+01  0.1570079E-11 -0.1728452E+01
  0.4102041E+00  0.1783478E+04 -0.1567785E+01  0.2332663E-02  0.3262337E-03  0.7604911E+04 -0.3389933E-02  0.3965313E-01 -0.3141408E+01  0.1268801E+05 -0.1567785E+01  0.1472206E-11  0.1647599E+01
  0.4489796E+00  0.1952357E+04 -0.1567183E+01  0.1744205E-03  0.3128495E+01  0.7583031E+04 -0.4060620E-02  0.1338116E-01  0.3137037E+01  0.1388958E+05 -0.1567183E+01  0.1558104E-11 -0.2318872E+01
  0.4877551E+00  0.2121325E+04 -0.1566525E+01  0.1133185E-02  0.3139353E+01  0.7559469E+04 -0.4791634E-02  0.3385442E-01 -0.3137813E+01  0.1509189E+05 -0.1566525E+01  0.3770629E-11 -0.1503090E+01
  0.5265306E+00  0.2290343E+04 -0.1565809E+01  0.1716513E-02 -0.1659962E-02  0.7534272E+04 -0.5583190E-02  0.5314563E-01  0.4990909E-03  0.1629458E+05 -0.1565809E+01  0.5766222E-12 -0.9338740E+00
  0.5653061E+00  0.2459384E+04 -0.1565036E+01  0.1377960E-02 -0.3135713E+01  0.7507478E+04 -0.6435228E-02  0.1042279E-01 -0.3130803E+01  0.1749751E+05 -0.1565036E+01  0.6630099E-12 -0.2371738E+01
  0.6040816E+00  0.2628395E+04 -0.1564205E+01  0.1527327E-02  0.3140402E+01  0.7479133E+04 -0.7347950E-02  0.3350291E-01  0.3140178E+01  0.1870026E+05 -0.1564205E+01  0.9089470E-12  0.5823142E-01
  0.6428572E+00  0.2797360E+04 -0.1563315E+01  0.1419849E-02  0.3120026E+01  0.7449267E+04 -0.8321445E-02  0.1117636E-01  0.3140663E+01  0.1990278E+05 -0.1563315E+01  0.3063644E-11 -0.1375821E+01
  0.6816327E+00  0.2966305E+04 -0.1562366E+01  0.2604503E-02  0.3139825E+01  0.7417937E+04 -0.9355856E-02  0.1435877E-01 -0.3118684E+01  0.2110520E+05 -0.1562366E+01  0.1880601E-11 -0.1532156E+01
  0.7204082E+00  0.3135164E+04 -0.1561357E+01  0.1462849E-02 -0.3138624E+01  0.7385143E+04 -0.1045123E-01  0.1110833E-01  0.1940562E-01  0.2230707E+05 -0.1561357E+01  0.1140461E-11  0.2881524E+01
  0.7591837E+00  0.3303918E+04 -0.1560287E+01  0.1715019E-02 -0.3123547E+01  0.7350908E+04 -0.1160784E-01  0.3774998E-01  0.3139680E+01  0.2350830E+05 -0.1560287E+01  0.9426637E-12 -0.2967254E+01
  0.7979592E+00  0.3472545E+04 -0.1559156E+01  0.1435297E-02 -0.1686818E-01  0.7315291E+04 -0.1282589E-01  0.3918239E-02  0.2594921E-01  0.2470873E+05 -0.1559156E+01  0.4392631E-11  0.2053947E+01
  0.8367347E+00  0.3641047E+04 -0.1557962E+01  0.7181903E-03  0.3109298E+01  0.7278295E+04 -0.1410548E-01  0.1015700E-01  0.3138848E+01  0.2590831E+05 -0.1557962E+01  0.2057303E-11 -0.1903380E+01
  0.8755102E+00  0.3809369E+04 -0.1556706E+01  0.1195122E-03  0.2839071E+01  0.7239937E+04 -0.1544702E-01  0.1191158E-01  0.3089772E+01  0.2710671E+05 -0.1556706E+01  0.6334411E-11 -0.4846697E+00
  0.9142857E+00  0.3977471E+04 -0.1555386E+01  0.2283492E-02 -0.3514139E-02  0.7200261E+04 -0.1685067E-01  0.2702172E-01  0.4665299E-03  0.2830365E+05 -0.1555386E+01  0.4706671E-11  0.2941152E+01
  0.9530612E+00  0.4145333E+04 -0.1554001E+01  0.1418344E-03  0.2982914E+00  0.7159317E+04 -0.1831666E-01  0.3180581E-01 -0.7883576E-02  0.2949900E+05 -0.1554001E+01  0.6938934E-11  0.2484401E+00
  0.9918368E+00  0.4312927E+04 -0.1552550E+01  0.2906331E-03  0.3103396E+01  0.7117026E+04 -0.1984545E-01  0.6207036E-02  0.3115171E+01  0.3069254E+05 -0.1552550E+01  0.9204707E-12 -0.1583289E+01
  0.1030612E+01  0.4480209E+04 -0.1551034E+01  0.2921278E-02  0.3123232E+01  0.7073563E+04 -0.2143736E-01  0.3415551E-01  0.3126487E+01  0.3188393E+05 -0.1551034E+01  0.2899546E-11  0.1496161E+01
  0.1069388E+01  0.4647187E+04 -0.1549450E+01  0.5277066E-02 -0.3611100E-02  0.7028915E+04 -0.2309276E-01  0.3305880E-01 -0.3123294E+01  0.3307331E+05 -0.1549450E+01  0.1024057E-11  0.1581926E+01
  0.1108163E+01  0.4813788E+04 -0.1547798E+01  0.4152002E-03  0.1050735E-01  0.6982880E+04 -0.2481174E-01  0.1450741E-01 -0.3130642E+01  0.3426015E+05 -0.1547798E+01  0.4554037E-11  0.8266032E+00
  0.1146939E+01  0.4979968E+04 -0.1546076E+01  0.1388305E-02  0.3135153E+01  0.6935717E+04 -0.2659520E-01  0.3382799E-02 -0.2095599E+00  0.3544406E+05 -0.1546076E+01  0.6518905E-11  0.8744894E+00
  0.1185714E+01  0.5145687E+04 -0.1544285E+01  0.8419654E-03 -0.3137713E+01  0.6887529E+04 -0.2844335E-01  0.9637823E-02 -0.3130216E+01  0.3662490E+05 -0.1544285E+01  0.5741990E-11  0.2607838E+01
  0.1224490E+01  0.5310900E+04 -0.1542422E+01  0.2053243E-02  0.3125551E+01  0.6838072E+04 -0.3035669E-01  0.6251728E-02  0.3103734E+01  0.3780223E+05 -0.1542422E+01  0.6551699E-11  0.2873046E+01
  0.1263265E+01  0.5475610E+04 -0.1540487E+01  0.4083089E-02 -0.7576339E-02  0.6787547E+04 -0.3233590E-01  0.7052423E-02  0.4938464E-01  0.3897611E+05 -0.1540487E+01  0.5671358E-11  0.1716648E+01
  0.1302041E+01  0.5639737E+04 -0.1538479E+01  0.4643817E-02 -0.3122705E+01  0.6735857E+04 -0.3438139E-01  0.9428900E-02 -0.1536637E+00  0.4014599E+05 -0.1538479E+01  0.9579147E-12  0.1580453E+01
  0.1340816E+01  0.5803265E+04 -0.1536396E+01  0.7982752E-03 -0.3098228E+01  0.6683187E+04 -0.3649387E-01  0.4396568E-01 -0.3128707E+01  0.4131172E+05 -0.1536396E+01  0.2914898E-11 -0.7958987E+00
  0.1379592E+01  0.5966086E+04 -0.1534238E+01  0.2500579E-02  0.3131059E+01  0.6629491E+04 -0.3867376E-01  0.1231280E-01  0.2468484E-01  0.4247263E+05 -0.1534238E+01  0.2376199E-11  0.5562925E+00
  0.1418367E+01  0.6128175E+04 -0.1532004E+01  0.1539412E-02  0.1388717E-01  0.6574638E+04 -0.4092184E-01  0.2521995E-02 -0.3139319E+01  0.4362846E+05 -0.1532004E+01  0.4976864E-12 -0.2833732E+01
  0.1457143E+01  0.6289496E+04 -0.1529691E+01  0.1211405E-02 -0.3046920E+01  0.6518875E+04 -0.4323883E-01  0.3043996E-01 -0.3103095E+01  0.4477901E+05 -0.1529691E+01  0.1086075E-10 -0.2358118E+01
  0.1495918E+01  0.6449897E+04 -0.1527301E+01  0.3845301E-02  0.3139644E+01  0.6462908E+04 -0.4562585E-01  0.2625261E-01  0.8635340E-02  0.4592321E+05 -0.1527301E+01  0.3837697E-11  0.2499733E+01
  0.1534694E+01  0.6609550E+04 -0.1524830E+01  0.8810607E-03 -0.9993076E-01  0.6404678E+04 -0.4808209E-01  0.9377845E-02 -0.3078676E+01  0.4706222E+05 -0.1524830E+01  0.3501906E-11  0.1414699E+01
  0.1573469E+01  0.6768175E+04 -0.1522277E+01  0.4040462E-02  0.3129971E+01  0.6346785E+04 -0.5061010E-01  0.2089989E-01 -0.3114855E+01  0.4819406E+05 -0.1522277E+01  0.8233445E-11 -0.1538414E+01
  0.1612245E+01  0.6925834E+04 -0.1519644E+01  0.1271278E-02  0.3989971E-01  0.6287228E+04 -0.5321026E-01  0.1478071E-01  0.1696437E-01  0.4931926E+05 -0.1519644E+01  0.3298553E-11  0.1991474E+01
  0.1651020E+01  0.7082621E+04 -0.1516926E+01  0.5146051E-03 -0.2867263E+01  0.6225500E+04 -0.5588177E-01  0.5920834E-01  0.1865703E-01  0.5043844E+05 -0.1516926E+01  0.5968521E-11  0.1513246E+01
  0.1689796E+01  0.7238011E+04 -0.1514125E+01  0.1669684E-02  0.3070495E+01  0.6164359E+04 -0.5862847E-01  0.2703177E-01 -0.1705131E-01  0.5154782E+05 -0.1514125E+01  0.5572763E-11  0.3001454E+01
  0.1728571E+01  0.7392184E+04 -0.1511238E+01  0.2780595E-02  0.1880961E-01  0.6102363E+04 -0.6144986E-01  0.2649430E-01  0.7014743E-01  0.5264880E+05 -0.1511238E+01  0.8336738E-11  0.2112498E+01
  0.1767347E+01  0.7545088E+04 -0.1508266E+01  0.3816518E-02 -0.7801203E-02  0.6039562E+04 -0.6434698E-01  0.1390823E-01 -0.2393104E-01  0.5374097E+05 -0.1508266E+01  0.5808884E-11 -0.1818764E+01
  0.1806122E+01  0.7696631E+04 -0.1505205E+01  0.1755318E-02  0.3100043E+01  0.5975959E+04 -0.6732086E-01  0.1342153E-01  0.1798624E-02  0.5482362E+05 -0.1505205E+01  0.3273059E-12  0.2440488E+01
  0.1844898E+01  0.7846736E+04 -0.1502057E+01  0.1634420E-02  0.6582634E-01  0.5911606E+04 -0.7037246E-01  0.5097280E-01  0.3072489E-01  0.5589624E+05 -0.1502057E+01  0.5684740E-11  0.2317895E+01
  0.1883674E+01  0.7995330E+04 -0.1498819E+01  0.2088794E-02  0.3099360E+01  0.5846497E+04 -0.7350291E-01  0.1652519E-01  0.3132270E+01  0.5695836E+05 -0.1498819E+01  0.1062955E-10  0.1072812E+01
  0.1922449E+01  0.8142344E+04 -0.1495490E+01  0.1654619E-02 -0.1028317E+00  0.5780678E+04 -0.7671330E-01  0.1544789E-01  0.1202831E+00  0.5800939E+05 -0.1495490E+01  0.8115055E-11  0.1769479E+01
  0.1961224E+01  0.8287684E+04 -0.1492070E+01  0.4727030E-02  0.1126525E-01  0.5714159E+04 -0.8000502E-01  0.1357706E-01  0.4088017E-02  0.5904880E+05 -0.1492070E+01  0.4425483E-11 -0.1277741E+01
  0.2000000E+01  0.8431280E+04 -0.1488559E+01  0.1054963E-02 -0.3034265E+01  0.5646973E+04 -0.8337958E-01  0.2426393E-02 -0.1610410E+01  0.6007600E+05 -0.1488559E+01  0.5835196E-11 -0.1819319E+01
