VARIABLES="w (rad/s)"  
"abs(F   1   1)" "angle(F   1   1)"
"abs(F   1   2)" "angle(F   1   2)"
"abs(F   1   3)" "angle(F   1   3)"
"abs(F   1   4)" "angle(F   1   4)"
"abs(F   1   5)" "angle(F   1   5)"
"abs(F   1   6)" "angle(F   1   6)"
Zone t="Excitation force - beta =  30.000 deg",I=    20,F=POINT
  0.9904544E+00  0.1020970E+04 -0.1570517E+01  0.5894612E+03 -0.1570516E+01  0.6888610E+04 -0.3563956E-02  0.6942220E+02  0.1571065E+01  0.1202422E+03 -0.1570517E+01  0.4906184E-06  0.1622025E+01
  0.1171454E+01  0.1410001E+04 -0.1570056E+01  0.8140703E+03 -0.1570047E+01  0.6541404E+04 -0.6654252E-02  0.9705136E+02  0.1571519E+01  0.1680980E+03 -0.1570056E+01  0.6759490E-06  0.1642489E+01
  0.1352454E+01  0.1852205E+04 -0.1569107E+01  0.1069379E+04 -0.1569102E+01  0.6157555E+04 -0.1121609E-01  0.1293163E+03  0.1572494E+01  0.2239811E+03 -0.1569107E+01  0.8859696E-06  0.1666718E+01
  0.1533453E+01  0.2342974E+04 -0.1567351E+01  0.1352725E+04 -0.1567340E+01  0.5746360E+04 -0.1750722E-01  0.1662690E+03  0.1574230E+01  0.2879852E+03 -0.1567351E+01  0.1118331E-05  0.1694707E+01
  0.1714453E+01  0.2877345E+04 -0.1564365E+01  0.1661247E+04 -0.1564363E+01  0.5316849E+04 -0.2575028E-01  0.2079678E+03  0.1577213E+01  0.3602099E+03 -0.1564365E+01  0.1371409E-05  0.1726762E+01
  0.1895452E+01  0.3449863E+04 -0.1559622E+01  0.1991786E+04 -0.1559626E+01  0.4878053E+04 -0.3613742E-01  0.2544686E+03  0.1581978E+01  0.4407516E+03 -0.1559622E+01  0.1643455E-05  0.1763172E+01
  0.2076452E+01  0.4054152E+04 -0.1552501E+01  0.2340677E+04 -0.1552501E+01  0.4438097E+04 -0.4884528E-01  0.3057869E+03  0.1589092E+01  0.5296362E+03 -0.1552502E+01  0.1933064E-05  0.1804338E+01
  0.2257452E+01  0.4682163E+04 -0.1542321E+01  0.2703253E+04 -0.1542319E+01  0.4003971E+04 -0.6404712E-01  0.3617962E+03  0.1599273E+01  0.6266467E+03 -0.1542321E+01  0.2238783E-05  0.1850616E+01
  0.2438451E+01  0.5323355E+04 -0.1528390E+01  0.3073457E+04 -0.1528391E+01  0.3582501E+04 -0.8193268E-01  0.4221678E+03  0.1613199E+01  0.7312126E+03 -0.1528390E+01  0.2559744E-05  0.1902472E+01
  0.2619451E+01  0.5963589E+04 -0.1510094E+01  0.3443095E+04 -0.1510096E+01  0.3179179E+04 -0.1027087E+00  0.4862432E+03  0.1631494E+01  0.8421931E+03 -0.1510094E+01  0.2894144E-05  0.1960205E+01
  0.2800450E+01  0.6584217E+04 -0.1487012E+01  0.3801416E+04 -0.1487013E+01  0.2797712E+04 -0.1266032E+00  0.5528189E+03  0.1654579E+01  0.9575073E+03 -0.1487012E+01  0.3239370E-05  0.2024152E+01
  0.2981450E+01  0.7161469E+04 -0.1459075E+01  0.4134696E+04 -0.1459075E+01  0.2442348E+04 -0.1538641E+00  0.6200901E+03  0.1682518E+01  0.1074020E+04 -0.1459075E+01  0.3592201E-05  0.2094253E+01
  0.3162450E+01  0.7667725E+04 -0.1426721E+01  0.4427006E+04 -0.1426719E+01  0.2114744E+04 -0.1847424E+00  0.6856143E+03  0.1714869E+01  0.1187509E+04 -0.1426722E+01  0.3947424E-05  0.2170310E+01
  0.3343449E+01  0.8073550E+04 -0.1391046E+01  0.4661313E+04 -0.1391045E+01  0.1816939E+04 -0.2194723E+00  0.7463469E+03  0.1750550E+01  0.1292699E+04 -0.1391047E+01  0.4299222E-05  0.2251517E+01
  0.3524449E+01  0.8353122E+04 -0.1353823E+01  0.4822732E+04 -0.1353821E+01  0.1548787E+04 -0.2583020E+00  0.7991428E+03  0.1787771E+01  0.1384144E+04 -0.1353824E+01  0.4641220E-05  0.2336796E+01
  0.3705448E+01  0.8489066E+04 -0.1317395E+01  0.4901206E+04 -0.1317392E+01  0.1310725E+04 -0.3013337E+00  0.8411873E+03  0.1824201E+01  0.1456966E+04 -0.1317396E+01  0.4968374E-05  0.2424712E+01
  0.3886448E+01  0.8477457E+04 -0.1284394E+01  0.4894490E+04 -0.1284391E+01  0.1100823E+04 -0.3488817E+00  0.8706066E+03  0.1857198E+01  0.1507925E+04 -0.1284396E+01  0.5277686E-05  0.2513736E+01
  0.4067448E+01  0.8328432E+04 -0.1257375E+01  0.4808442E+04 -0.1257371E+01  0.9183077E+03 -0.4008341E+00  0.8868593E+03  0.1884219E+01  0.1536081E+04 -0.1257377E+01  0.5568877E-05  0.2602536E+01
  0.4248447E+01  0.8064052E+04 -0.1238469E+01  0.4655779E+04 -0.1238467E+01  0.7608264E+03 -0.4573874E+00  0.8905981E+03  0.1903122E+01  0.1542566E+04 -0.1238477E+01  0.5844134E-05  0.2690295E+01
  0.4429447E+01  0.7712620E+04 -0.1229194E+01  0.4452877E+04 -0.1229192E+01  0.6261732E+03 -0.5185711E+00  0.8835141E+03  0.1912390E+01  0.1530294E+04 -0.1229204E+01  0.6105500E-05  0.2776721E+01
