VARIABLES="w (rad/s)"  
"abs(F   1   1)" "angle(F   1   1)"
"abs(F   1   2)" "angle(F   1   2)"
"abs(F   1   3)" "angle(F   1   3)"
Zone t="Excitation force - beta =   0.000 deg",I=    50,F=POINT
  0.2283000E+01  0.9416207E+04 -0.1460079E+01  0.5138389E+04 -0.1106331E+00  0.3490395E+04  0.1681513E+01
  0.2417204E+01  0.9837130E+04 -0.1444801E+01  0.4889472E+04 -0.1252816E+00  0.3625443E+04  0.1696792E+01
  0.2551408E+01  0.1022151E+05 -0.1428400E+01  0.4635205E+04 -0.1411385E+00  0.3743436E+04  0.1713192E+01
  0.2685612E+01  0.1056418E+05 -0.1410924E+01  0.4377874E+04 -0.1582822E+00  0.3842375E+04  0.1730668E+01
  0.2819816E+01  0.1085916E+05 -0.1392467E+01  0.4119442E+04 -0.1767985E+00  0.3920207E+04  0.1749125E+01
  0.2954021E+01  0.1110108E+05 -0.1373171E+01  0.3860341E+04 -0.1967922E+00  0.3975083E+04  0.1768424E+01
  0.3088224E+01  0.1128432E+05 -0.1353229E+01  0.3602878E+04 -0.2183691E+00  0.4005122E+04  0.1788365E+01
  0.3222429E+01  0.1140396E+05 -0.1332920E+01  0.3347280E+04 -0.2416332E+00  0.4008900E+04  0.1808674E+01
  0.3356633E+01  0.1145610E+05 -0.1312584E+01  0.3092740E+04 -0.2666858E+00  0.3985671E+04  0.1829014E+01
  0.3490837E+01  0.1143826E+05 -0.1292631E+01  0.2846674E+04 -0.2936803E+00  0.3935102E+04  0.1848973E+01
  0.3625041E+01  0.1134950E+05 -0.1273553E+01  0.2607236E+04 -0.3227642E+00  0.3857557E+04  0.1868052E+01
  0.3759245E+01  0.1119132E+05 -0.1255903E+01  0.2373534E+04 -0.3540066E+00  0.3754426E+04  0.1885702E+01
  0.3893449E+01  0.1096613E+05 -0.1240363E+01  0.2144001E+04 -0.3875327E+00  0.3627700E+04  0.1901256E+01
  0.4027653E+01  0.1068273E+05 -0.1227253E+01  0.1937553E+04 -0.4234540E+00  0.3481457E+04  0.1914384E+01
  0.4161857E+01  0.1034574E+05 -0.1217474E+01  0.1739221E+04 -0.4620611E+00  0.3318021E+04  0.1924170E+01
  0.4296062E+01  0.9966060E+04 -0.1211469E+01  0.1543567E+04 -0.5033150E+00  0.3142125E+04  0.1930175E+01
  0.4430265E+01  0.9553100E+04 -0.1209717E+01  0.1370343E+04 -0.5470108E+00  0.2957971E+04  0.1931950E+01
  0.4564469E+01  0.9117861E+04 -0.1212597E+01  0.1206061E+04 -0.5935763E+00  0.2769838E+04  0.1929111E+01
  0.4698673E+01  0.8669464E+04 -0.1220433E+01  0.1054856E+04 -0.6432018E+00  0.2581200E+04  0.1921288E+01
  0.4832878E+01  0.8217131E+04 -0.1233408E+01  0.9253105E+03 -0.6961114E+00  0.2395500E+04  0.1908309E+01
  0.4967082E+01  0.7768465E+04 -0.1251606E+01  0.8028810E+03 -0.7510734E+00  0.2215425E+04  0.1890119E+01
  0.5101286E+01  0.7329728E+04 -0.1274978E+01  0.6884666E+03 -0.8085237E+00  0.2043068E+04  0.1866786E+01
  0.5235490E+01  0.6905303E+04 -0.1303511E+01  0.6011102E+03 -0.8697442E+00  0.1879755E+04  0.1838272E+01
  0.5369694E+01  0.6498865E+04 -0.1337023E+01  0.5082924E+03 -0.9345140E+00  0.1726408E+04  0.1804736E+01
  0.5503898E+01  0.6112328E+04 -0.1375387E+01  0.4343911E+03 -0.1001785E+01  0.1583431E+04  0.1766332E+01
  0.5638103E+01  0.5746963E+04 -0.1418365E+01  0.3700446E+03 -0.1070089E+01  0.1450926E+04  0.1723334E+01
  0.5772306E+01  0.5403154E+04 -0.1465746E+01  0.3185477E+03 -0.1141080E+01  0.1328679E+04  0.1675935E+01
  0.5906510E+01  0.5080707E+04 -0.1517327E+01  0.2634451E+03 -0.1216977E+01  0.1216293E+04  0.1624304E+01
  0.6040714E+01  0.4779123E+04 -0.1572908E+01  0.2243094E+03 -0.1298223E+01  0.1113272E+04  0.1568656E+01
  0.6174919E+01  0.4497491E+04 -0.1632291E+01  0.1723631E+03 -0.1382731E+01  0.1019005E+04  0.1509200E+01
  0.6309123E+01  0.4234842E+04 -0.1695285E+01  0.1467691E+03 -0.1468532E+01  0.9328955E+03  0.1446138E+01
  0.6443326E+01  0.3989948E+04 -0.1761731E+01  0.1259605E+03 -0.1560155E+01  0.8542857E+03  0.1379625E+01
  0.6577531E+01  0.3761666E+04 -0.1831478E+01  0.8491454E+02 -0.1671126E+01  0.7825560E+03  0.1309816E+01
  0.6711735E+01  0.3548959E+04 -0.1904343E+01  0.9214269E+02 -0.1826947E+01  0.7171306E+03  0.1236965E+01
  0.6845939E+01  0.3350438E+04 -0.1980292E+01  0.6240872E+02 -0.2281887E+01  0.6573751E+03  0.1161079E+01
  0.6980143E+01  0.3165192E+04 -0.2059131E+01  0.3189932E+02 -0.1450435E+01  0.6028192E+03  0.1082342E+01
  0.7114347E+01  0.2992269E+04 -0.2140849E+01  0.4121371E+02 -0.1759349E+01  0.5529516E+03  0.1000753E+01
  0.7248551E+01  0.2830363E+04 -0.2225232E+01  0.4482311E+02 -0.1895084E+01  0.5073380E+03  0.9165407E+00
  0.7382755E+01  0.2679035E+04 -0.2312228E+01  0.4981781E+02 -0.2013065E+01  0.4656239E+03  0.8298525E+00
  0.7516960E+01  0.2536651E+04 -0.2402088E+01  0.3219081E+02 -0.2113911E+01  0.4269683E+03  0.7405558E+00
  0.7651164E+01  0.2402746E+04 -0.2494427E+01  0.2330583E+02 -0.2221395E+01  0.3913051E+03  0.6489825E+00
  0.7785367E+01  0.2276495E+04 -0.2589494E+01  0.1348549E+02 -0.2316498E+01  0.3581017E+03  0.5548000E+00
  0.7919572E+01  0.2155731E+04 -0.2687303E+01  0.1436194E+02 -0.2439559E+01  0.3268947E+03  0.4578542E+00
  0.8053776E+01  0.2040515E+04 -0.2788115E+01  0.1219587E+02 -0.2549195E+01  0.2972508E+03  0.3579333E+00
  0.8187980E+01  0.1928340E+04 -0.2892340E+01  0.6587947E+01 -0.2633958E+01  0.2680321E+03  0.2547821E+00
  0.8322184E+01  0.1814086E+04 -0.3001064E+01  0.7087492E+01 -0.2761023E+01  0.2368035E+03  0.1476293E+00
  0.8456388E+01  0.1684928E+04 -0.3118384E+01  0.5192510E+01 -0.2886662E+01  0.1973127E+03  0.3272700E-01
  0.8590592E+01  0.1465371E+04  0.3016824E+01  0.3596806E+01 -0.3019737E+01  0.1134487E+03 -0.1051813E+00
  0.8724796E+01  0.2611328E+04 -0.2960194E+01  0.2274320E+01  0.3132374E+01  0.7313091E+03  0.1832173E+00
  0.8859000E+01  0.1722643E+04  0.2923413E+01  0.1234994E+01  0.3023681E+01  0.2819616E+03 -0.2115967E+00
