VARIABLES="Frequency (rad/s)" "|Fx| (N/m)" "|Fy| (N/m)" "|Fz| (N/m)" "|Cx| (N)" "|Cy| (N)" "|Cz| (N)" "ang(Fx) (°)" "ang(Fy) (°)" "ang(Fz) (°)" "ang(Cx) (°)" "ang(Cy) (°)" "ang(Cz) (°)"
Zone t="Corps  1"
Zone t="Excitation force - beta =   0.000 deg",I=    20,F=POINT
 0.9905
 1.1715
 1.3525
 1.5335
 1.7145
 1.8955
 2.0765
 2.2575
 2.4385
 2.6195
 2.8005
 2.9815
 3.1624
 3.3434
 3.5244
 3.7054
 3.8864
 4.0674
 4.2484
 4.4294
