VARIABLES="w (rad/s)"
"abs(F   1   1)" "angle(F   1   1)"
"abs(F   1   2)" "angle(F   1   2)"
"abs(F   1   3)" "angle(F   1   3)"
Zone t="FKforce - beta =   0.000",I=    50,F=POINT
  0.2283000E+01  0.4614456E+04 -0.1570796E+01  0.5681405E+04 -0.2649023E-08  0.1692986E+04  0.1570796E+01
  0.2417204E+01  0.4820956E+04 -0.1570796E+01  0.5451518E+04 -0.2416323E-08  0.1758700E+04  0.1570796E+01
  0.2551408E+01  0.5016138E+04 -0.1570796E+01  0.5213196E+04  0.1452044E-08  0.1818547E+04  0.1570796E+01
  0.2685612E+01  0.5199339E+04 -0.1570796E+01  0.4967433E+04  0.5759561E-09  0.1872204E+04  0.1570796E+01
  0.2819816E+01  0.5369914E+04 -0.1570796E+01  0.4715312E+04 -0.5997991E-08  0.1919367E+04  0.1570796E+01
  0.2954021E+01  0.5527227E+04 -0.1570796E+01  0.4458026E+04 -0.3115253E-08  0.1959744E+04  0.1570796E+01
  0.3088224E+01  0.5670664E+04 -0.1570796E+01  0.4196888E+04 -0.3884276E-08  0.1993077E+04  0.1570796E+01
  0.3222429E+01  0.5799636E+04 -0.1570796E+01  0.3933304E+04  0.5303843E-09  0.2019129E+04  0.1570796E+01
  0.3356633E+01  0.5913600E+04 -0.1570796E+01  0.3668800E+04  0.1787099E-09  0.2037706E+04  0.1570796E+01
  0.3490837E+01  0.6012060E+04 -0.1570796E+01  0.3404978E+04 -0.4700132E-08  0.2048669E+04  0.1570796E+01
  0.3625041E+01  0.6094568E+04 -0.1570796E+01  0.3143530E+04 -0.7584423E-10  0.2051932E+04  0.1570796E+01
  0.3759245E+01  0.6160755E+04 -0.1570796E+01  0.2886189E+04 -0.7537863E-09  0.2047467E+04  0.1570796E+01
  0.3893449E+01  0.6210319E+04 -0.1570796E+01  0.2634685E+04 -0.4615104E-08  0.2035335E+04  0.1570796E+01
  0.4027653E+01  0.6243043E+04 -0.1570796E+01  0.2390751E+04 -0.4188466E-08  0.2015667E+04  0.1570796E+01
  0.4161857E+01  0.6258796E+04 -0.1570796E+01  0.2156011E+04 -0.8183155E-08  0.1988679E+04  0.1570796E+01
  0.4296062E+01  0.6257541E+04 -0.1570796E+01  0.1931989E+04 -0.5090489E-08  0.1954675E+04  0.1570796E+01
  0.4430265E+01  0.6239317E+04 -0.1570796E+01  0.1720002E+04 -0.5440650E-08  0.1914035E+04  0.1570796E+01
  0.4564469E+01  0.6204270E+04 -0.1570796E+01  0.1521168E+04  0.3448145E-08  0.1867215E+04  0.1570796E+01
  0.4698673E+01  0.6152589E+04 -0.1570796E+01  0.1336319E+04  0.1628031E-08  0.1814733E+04  0.1570796E+01
  0.4832878E+01  0.6084555E+04 -0.1570796E+01  0.1166010E+04  0.1341859E-07  0.1757150E+04  0.1570796E+01
  0.4967082E+01  0.6000500E+04 -0.1570796E+01  0.1010511E+04 -0.2506848E-09  0.1695069E+04  0.1570796E+01
  0.5101286E+01  0.5900795E+04 -0.1570796E+01  0.8697958E+03 -0.6681399E-09  0.1629106E+04  0.1570796E+01
  0.5235490E+01  0.5785863E+04 -0.1570796E+01  0.7435679E+03  0.8817636E-09  0.1559876E+04  0.1570796E+01
  0.5369694E+01  0.5656151E+04 -0.1570796E+01  0.6313099E+03 -0.1366646E-07  0.1487983E+04  0.1570796E+01
  0.5503898E+01  0.5512135E+04 -0.1570796E+01  0.5323141E+03  0.1469641E-07  0.1414013E+04  0.1570796E+01
  0.5638103E+01  0.5354351E+04 -0.1570796E+01  0.4457343E+03 -0.2440433E-08  0.1338529E+04  0.1570796E+01
  0.5772306E+01  0.5183357E+04 -0.1570796E+01  0.3706220E+03  0.8041164E-10  0.1262052E+04  0.1570796E+01
  0.5906510E+01  0.4999754E+04 -0.1570796E+01  0.3059684E+03 -0.4821462E-08  0.1185073E+04  0.1570796E+01
  0.6040714E+01  0.4804197E+04 -0.1570796E+01  0.2507532E+03 -0.1509410E-07  0.1108049E+04  0.1570796E+01
  0.6174919E+01  0.4597404E+04 -0.1570796E+01  0.2039621E+03 -0.1256606E-07  0.1031400E+04  0.1570796E+01
  0.6309123E+01  0.4380135E+04 -0.1570796E+01  0.1646137E+03  0.2987227E-08  0.9555107E+03  0.1570796E+01
  0.6443326E+01  0.4153253E+04 -0.1570796E+01  0.1317815E+03  0.1074210E-07  0.8807416E+03  0.1570796E+01
  0.6577531E+01  0.3917660E+04 -0.1570796E+01  0.1046003E+03 -0.1659637E-07  0.8074142E+03  0.1570796E+01
  0.6711735E+01  0.3674352E+04 -0.1570796E+01  0.8227756E+02 -0.4663543E-08  0.7358276E+03  0.1570796E+01
  0.6845939E+01  0.3424399E+04 -0.1570796E+01  0.6409544E+02 -0.1185668E-07  0.6662488E+03  0.1570796E+01
  0.6980143E+01  0.3168967E+04 -0.1570796E+01  0.4941323E+02 -0.2261716E-08  0.5989272E+03  0.1570796E+01
  0.7114347E+01  0.2909261E+04 -0.1570796E+01  0.3766174E+02 -0.3165262E-07  0.5340767E+03  0.1570796E+01
  0.7248551E+01  0.2646596E+04 -0.1570796E+01  0.2834493E+02 -0.2089690E-07  0.4718957E+03  0.1570796E+01
  0.7382755E+01  0.2382349E+04 -0.1570796E+01  0.2103238E+02  0.1948339E-08  0.4125559E+03  0.1570796E+01
  0.7516960E+01  0.2117941E+04 -0.1570796E+01  0.1535427E+02 -0.2414093E-07  0.3562039E+03  0.1570796E+01
  0.7651164E+01  0.1854884E+04 -0.1570796E+01  0.1099714E+02 -0.3844821E-07  0.3029695E+03  0.1570796E+01
  0.7785367E+01  0.1594688E+04 -0.1570796E+01  0.7696363E+01  0.2831590E-07  0.2529515E+03  0.1570796E+01
  0.7919572E+01  0.1338945E+04 -0.1570796E+01  0.5232035E+01  0.6621745E-07  0.2062373E+03  0.1570796E+01
  0.8053776E+01  0.1089231E+04 -0.1570796E+01  0.3422253E+01  0.4354196E-07  0.1628844E+03  0.1570796E+01
  0.8187980E+01  0.8471373E+03 -0.1570796E+01  0.2118588E+01  0.1024258E-06  0.1229333E+03  0.1570796E+01
  0.8322184E+01  0.6142704E+03 -0.1570796E+01  0.1201172E+01  0.2039157E-06  0.8640719E+02  0.1570796E+01
  0.8456388E+01  0.3921553E+03 -0.1570796E+01  0.5739896E+00  0.2287785E-06  0.5330138E+02  0.1570796E+01
  0.8590592E+01  0.1823091E+03 -0.1570797E+01  0.1613597E+00  0.1500646E-05  0.2359827E+02  0.1570796E+01
  0.8724796E+01  0.1383666E+02  0.1570797E+01  0.9577985E-01  0.3141591E+01  0.2741477E+01 -0.1570797E+01
  0.8859000E+01  0.1949392E+03  0.1570797E+01  0.2428439E+00  0.3141592E+01  0.2577547E+02 -0.1570796E+01
