VARIABLES="w (rad/s)"
"abs(F   1   1)" "angle(F   1   1)"
"abs(F   1   2)" "angle(F   1   2)"
"abs(F   1   3)" "angle(F   1   3)"
"abs(F   1   4)" "angle(F   1   4)"
"abs(F   1   5)" "angle(F   1   5)"
"abs(F   1   6)" "angle(F   1   6)"
Zone t="FKforce - beta =   0.000",I=    50,F=POINT
  0.1000000E+00  0.2238159E+03 -0.1570796E+01  0.3204346E-02  0.3141574E+01  0.7721930E+04 -0.8683739E-11  0.4578656E-01 -0.3141586E+01  0.1593115E+04 -0.1570796E+01  0.8759531E-11  0.3105691E+01
  0.1387755E+00  0.3105491E+03 -0.1570796E+01  0.9155322E-04 -0.3255197E-02  0.7718090E+04 -0.1102901E-09  0.2385692E-01 -0.9680165E-04  0.2210485E+04 -0.1570796E+01  0.2976710E-11 -0.3023159E+01
  0.1775510E+00  0.3972316E+03 -0.1570796E+01  0.1073837E-02 -0.3141315E+01  0.7713018E+04  0.1883651E-10  0.4298330E-01  0.9189414E-04  0.2827501E+04 -0.1570796E+01  0.1937141E-11  0.3073683E+01
  0.2163265E+00  0.4838479E+03 -0.1570796E+01  0.4453659E-02  0.8029979E-04  0.7706693E+04 -0.5993959E-10  0.2583966E-01 -0.3141397E+01  0.3444060E+04 -0.1570796E+01  0.3087439E-11 -0.2929998E+00
  0.2551020E+00  0.5703842E+03 -0.1570796E+01  0.8905411E-02 -0.3141439E+01  0.7699134E+04 -0.2341874E-09  0.2727685E-01  0.3141427E+01  0.4060058E+04 -0.1570796E+01  0.1227410E-11  0.7362574E+00
  0.2938775E+00  0.6568264E+03 -0.1570796E+01  0.1853943E-02 -0.3141496E+01  0.7690330E+04 -0.3826857E-10  0.1765395E-01  0.3141555E+01  0.4675402E+04 -0.1570796E+01  0.1669654E-11  0.2834646E+01
  0.3326530E+00  0.7431611E+03 -0.1570796E+01  0.2851486E-02 -0.8361204E-04  0.7680284E+04  0.6111579E-10  0.2802128E-02  0.3140323E+01  0.5289987E+04 -0.1570796E+01  0.8347290E-11  0.3034132E+01
  0.3714286E+00  0.8293716E+03 -0.1570796E+01  0.3618240E-02  0.4942014E-04  0.7669004E+04 -0.1748733E-10  0.5217679E-02 -0.1635671E-03  0.5903713E+04 -0.1570796E+01  0.8276527E-12 -0.1849096E+01
  0.4102041E+00  0.9154454E+03 -0.1570796E+01  0.2328873E-02 -0.5118755E-04  0.7656487E+04 -0.3931352E-09  0.3963117E-01  0.3141554E+01  0.6516490E+04 -0.1570796E+01  0.1135469E-11  0.1671088E+01
  0.4489796E+00  0.1001368E+04 -0.1570796E+01  0.1754764E-03  0.3139555E+01  0.7642733E+04  0.4191890E-10  0.1348038E-01 -0.3140755E+01  0.7128196E+04 -0.1570796E+01  0.1199113E-11 -0.2593043E+01
  0.4877551E+00  0.1087123E+04 -0.1570796E+01  0.1123429E-02 -0.3140850E+01  0.7627754E+04  0.2539608E-10  0.3376459E-01 -0.3141361E+01  0.7738750E+04 -0.1570796E+01  0.3049611E-11 -0.1496169E+01
  0.5265306E+00  0.1172699E+04 -0.1570796E+01  0.1659393E-02 -0.4310345E-03  0.7611541E+04 -0.8124481E-09  0.5350265E-01  0.8355378E-04  0.8348046E+04 -0.1570796E+01  0.9183336E-12 -0.1190290E+01
  0.5653061E+00  0.1258079E+04 -0.1570796E+01  0.1361847E-02  0.3141505E+01  0.7594106E+04 -0.9143856E-09  0.1076538E-01 -0.3141355E+01  0.8955992E+04 -0.1570796E+01  0.1060495E-11 -0.2136498E+01
  0.6040816E+00  0.1343251E+04 -0.1570796E+01  0.1512528E-02  0.3140962E+01  0.7575446E+04  0.9835171E-12  0.3382883E-01  0.3141477E+01  0.9562453E+04 -0.1570796E+01  0.1012068E-11 -0.6659693E+00
  0.6428572E+00  0.1428198E+04 -0.1570796E+01  0.1438143E-02  0.3140018E+01  0.7555558E+04 -0.3234427E-09  0.1135756E-01 -0.3139504E+01  0.1016737E+05 -0.1570796E+01  0.2371297E-11 -0.1328725E+01
  0.6816327E+00  0.1512904E+04 -0.1570796E+01  0.2592088E-02 -0.3140673E+01  0.7534462E+04 -0.1054132E-08  0.1454795E-01  0.3140979E+01  0.1077060E+05 -0.1570796E+01  0.0000000E+00  0.0000000E+00
  0.7204082E+00  0.1597360E+04 -0.1570796E+01  0.1455308E-02  0.3140446E+01  0.7512152E+04 -0.9283283E-09  0.1125312E-01 -0.7514930E-03  0.1137207E+05 -0.1570796E+01  0.1861188E-11  0.2307584E+01
  0.7591837E+00  0.1681547E+04 -0.1570796E+01  0.1686096E-02 -0.3141381E+01  0.7488626E+04 -0.9113463E-09  0.3766952E-01  0.3141228E+01  0.1197168E+05 -0.1570796E+01  0.1379624E-11 -0.2290595E+01
  0.7979592E+00  0.1765452E+04 -0.1570796E+01  0.1380920E-02 -0.1726519E-03  0.7463901E+04  0.7786080E-09  0.4259028E-02  0.2063974E-03  0.1256933E+05 -0.1570796E+01  0.2390847E-11  0.2598115E+01
  0.8367347E+00  0.1849060E+04 -0.1570796E+01  0.7686645E-03 -0.3138801E+01  0.7437974E+04 -0.1025736E-08  0.9969139E-02  0.3141169E+01  0.1316490E+05 -0.1570796E+01  0.9927276E-12  0.2729182E+01
  0.8755102E+00  0.1932357E+04 -0.1570796E+01  0.1688172E-03 -0.3127469E+01  0.7410848E+04 -0.1930294E-09  0.1156670E-01 -0.3139806E+01  0.1375829E+05 -0.1570796E+01  0.5801441E-11 -0.2830102E+00
  0.9142857E+00  0.2015328E+04 -0.1570796E+01  0.2312660E-02  0.2061856E-03  0.7382530E+04 -0.5167195E-09  0.2691266E-01 -0.5049832E-03  0.1434941E+05 -0.1570796E+01  0.5364104E-11  0.2668467E+01
  0.9530612E+00  0.2097958E+04 -0.1570796E+01  0.6965129E-04  0.3081216E-01  0.7353032E+04  0.2979003E-09  0.3162058E-01 -0.4835860E-03  0.1493816E+05 -0.1570796E+01  0.6984169E-11  0.3359066E+00
  0.9918368E+00  0.2180231E+04 -0.1570796E+01  0.2937379E-03 -0.3135099E+01  0.7322338E+04  0.1628022E-10  0.5454355E-02  0.3140898E+01  0.1552441E+05 -0.1570796E+01  0.2248191E-11 -0.1621386E+01
  0.1030612E+01  0.2262134E+04 -0.1570796E+01  0.2952576E-02 -0.3140866E+01  0.7290482E+04 -0.1005608E-08  0.3415399E-01 -0.3141506E+01  0.1610807E+05 -0.1570796E+01  0.2191423E-11  0.1518895E+01
  0.1069388E+01  0.2343651E+04 -0.1570796E+01  0.5238533E-02 -0.1820499E-03  0.7257451E+04 -0.9301098E-09  0.3295252E-01 -0.3141310E+01  0.1668905E+05 -0.1570796E+01  0.1449507E-11  0.1570796E+01
  0.1108163E+01  0.2424765E+04 -0.1570796E+01  0.3919619E-03  0.3041353E-02  0.7223262E+04  0.2681823E-10  0.1420960E-01  0.3140079E+01  0.1726725E+05 -0.1570796E+01  0.3208004E-11 -0.1243550E+00
  0.1146939E+01  0.2505469E+04 -0.1570796E+01  0.1340873E-02  0.3138392E+01  0.7187909E+04 -0.6219262E-11  0.2756180E-02 -0.4775776E-02  0.1784253E+05 -0.1570796E+01  0.6856174E-11  0.8675657E+00
  0.1185714E+01  0.2585736E+04 -0.1570796E+01  0.8287596E-03 -0.3135264E+01  0.7151409E+04 -0.1143934E-08  0.9468209E-02 -0.3138934E+01  0.1841482E+05 -0.1570796E+01  0.4888864E-11  0.3129965E+01
  0.1224490E+01  0.2665560E+04 -0.1570796E+01  0.2112389E-02  0.3141480E+01  0.7113766E+04  0.5236735E-10  0.5948395E-02 -0.3141321E+01  0.1898398E+05 -0.1570796E+01  0.6097964E-11  0.2987172E+01
  0.1263265E+01  0.2744926E+04 -0.1570796E+01  0.4041673E-02  0.7668710E-03  0.7074984E+04  0.3791117E-10  0.8015051E-02  0.3165198E-03  0.1954996E+05 -0.1570796E+01  0.4498269E-11  0.1697502E+01
  0.1302041E+01  0.2823814E+04 -0.1570796E+01  0.4629137E-02 -0.3140820E+01  0.7035074E+04 -0.1006109E-08  0.9130451E-02  0.2334008E-02  0.2011259E+05 -0.1570796E+01  0.4547474E-11  0.1570796E+01
  0.1340816E+01  0.2902211E+04 -0.1570796E+01  0.8020402E-03  0.3141295E+01  0.6994045E+04 -0.1022664E-09  0.4356464E-01 -0.3141180E+01  0.2067178E+05 -0.1570796E+01  0.4364838E-11 -0.1197545E+01
  0.1379592E+01  0.2980104E+04 -0.1570796E+01  0.2474785E-02  0.3140918E+01  0.6951905E+04 -0.2970842E-08  0.1143437E-01 -0.2926134E-02  0.2122750E+05 -0.1570796E+01  0.2160050E-11  0.0000000E+00
  0.1418367E+01  0.3057472E+04 -0.1570796E+01  0.1520167E-02  0.3607262E-02  0.6908659E+04  0.9576555E-09  0.2295377E-02 -0.3136341E+01  0.2177952E+05 -0.1570796E+01  0.8276527E-12 -0.1849096E+01
  0.1457143E+01  0.3134306E+04 -0.1570796E+01  0.1173020E-02  0.3141186E+01  0.6864324E+04 -0.9030580E-09  0.3178018E-01  0.3140512E+01  0.2232784E+05 -0.1570796E+01  0.8134023E-11 -0.2825367E+01
  0.1495918E+01  0.3210587E+04 -0.1570796E+01  0.3803253E-02  0.3141217E+01  0.6818904E+04  0.8741089E-11  0.2512318E-01 -0.7603944E-03  0.2287230E+05 -0.1570796E+01  0.6433673E-11  0.2008758E+01
  0.1534694E+01  0.3286295E+04 -0.1570796E+01  0.8430557E-03  0.4242056E-02  0.6772408E+04 -0.2314690E-08  0.9579360E-02  0.3141562E+01  0.2341274E+05 -0.1570796E+01  0.1936017E-11  0.1512040E+01
  0.1573469E+01  0.3361426E+04 -0.1570796E+01  0.3977777E-02  0.3140634E+01  0.6724847E+04 -0.3988506E-09  0.2135313E-01 -0.3140338E+01  0.2394918E+05 -0.1570796E+01  0.2787067E-11 -0.1365401E+01
  0.1612245E+01  0.3435961E+04 -0.1570796E+01  0.1179701E-02  0.3233619E-02  0.6676229E+04 -0.3124762E-10  0.1485756E-01  0.6036255E-03  0.2448144E+05 -0.1570796E+01  0.1688403E-11  0.2511559E+01
  0.1651020E+01  0.3509876E+04 -0.1570796E+01  0.4081771E-03  0.3136920E+01  0.6626568E+04 -0.1056889E-08  0.5981651E-01 -0.2637617E-03  0.2500941E+05 -0.1570796E+01  0.5929180E-11  0.1494024E+01
  0.1689796E+01  0.3583165E+04 -0.1570796E+01  0.1787186E-02 -0.3141459E+01  0.6575879E+04 -0.2266033E-08  0.2662990E-01 -0.4355515E-03  0.2553294E+05 -0.1570796E+01  0.5531364E-11 -0.2751544E+01
  0.1728571E+01  0.3655805E+04 -0.1570796E+01  0.2799990E-02 -0.1192098E-02  0.6524162E+04  0.2503260E-08  0.2760630E-01 -0.4309504E-03  0.2605200E+05 -0.1570796E+01  0.4285557E-11  0.2761086E+01
  0.1767347E+01  0.3727785E+04 -0.1570796E+01  0.3808976E-02 -0.6259388E-03  0.6471449E+04 -0.1049986E-08  0.1549346E-01 -0.6009566E-03  0.2656645E+05 -0.1570796E+01  0.1455902E-11 -0.2466852E+01
  0.1806122E+01  0.3799086E+04 -0.1570796E+01  0.1733780E-02  0.3140768E+01  0.6417730E+04 -0.4276892E-08  0.1327990E-01 -0.3424459E-03  0.2707615E+05 -0.1570796E+01  0.1830499E-11  0.1121037E+01
  0.1844898E+01  0.3869698E+04 -0.1570796E+01  0.1666071E-02  0.1431024E-02  0.6363037E+04 -0.1761057E-08  0.5044620E-01  0.1068365E-02  0.2758102E+05 -0.1570796E+01  0.4588500E-11  0.2408777E+01
  0.1883674E+01  0.3939601E+04 -0.1570796E+01  0.1991274E-02  0.3140156E+01  0.6307368E+04 -0.1871100E-08  0.1593037E-01 -0.3141256E+01  0.2808100E+05 -0.1570796E+01  0.3516146E-11 -0.5723088E+00
  0.1922449E+01  0.4008780E+04 -0.1570796E+01  0.1594557E-02 -0.4186579E-02  0.6250751E+04 -0.2660432E-08  0.1430090E-01  0.2245960E-02  0.2857589E+05 -0.1570796E+01  0.6528832E-11  0.1692991E+01
  0.1961224E+01  0.4077215E+04 -0.1570796E+01  0.4736901E-02 -0.6039863E-03  0.6193191E+04 -0.1684239E-09  0.1387283E-01 -0.8081621E-03  0.2906561E+05 -0.1570796E+01  0.3157241E-11 -0.1163540E+01
  0.2000000E+01  0.4144898E+04 -0.1570796E+01  0.1123436E-02 -0.3137773E+01  0.6134706E+04 -0.2618455E-08  0.7570024E-03  0.3139922E+01  0.2955007E+05 -0.1570796E+01  0.3971012E-11 -0.1831399E+01
