VARIABLES="w (rad/s)"
Zone t="FKforce - beta =   0.000",I=     1,F=POINT
  0.9904544E+00
