VARIABLES="w (rad/s)"
"abs(F   1   1)" "angle(F   1   1)"
Zone t="FKforce - beta =   0.000",I=    50,F=POINT
  0.2283000E+01  0.5752861E+04 -0.2201685E-10
  0.2417204E+01  0.5519761E+04 -0.1270163E-08
  0.2551408E+01  0.5278113E+04 -0.2468887E-08
  0.2685612E+01  0.5028938E+04 -0.2297871E-08
  0.2819816E+01  0.4773318E+04 -0.6760175E-08
  0.2954021E+01  0.4512471E+04 -0.8668322E-09
  0.3088224E+01  0.4247727E+04 -0.8068474E-10
  0.3222429E+01  0.3980515E+04 -0.4664434E-08
  0.3356633E+01  0.3712391E+04 -0.3953690E-09
  0.3490837E+01  0.3444975E+04 -0.5839395E-10
  0.3625041E+01  0.3179978E+04 -0.7982486E-08
  0.3759245E+01  0.2919167E+04  0.2041838E-10
  0.3893449E+01  0.2664292E+04  0.7886013E-09
  0.4027653E+01  0.2417112E+04 -0.4750025E-08
  0.4161857E+01  0.2179283E+04 -0.1185647E-07
  0.4296062E+01  0.1952342E+04 -0.3919266E-08
  0.4430265E+01  0.1737619E+04  0.2679881E-08
  0.4564469E+01  0.1536259E+04 -0.4282393E-08
  0.4698673E+01  0.1349100E+04  0.6638201E-08
  0.4832878E+01  0.1176696E+04 -0.1225833E-07
  0.4967082E+01  0.1019325E+04  0.2119706E-08
  0.5101286E+01  0.8769552E+03  0.2956596E-08
  0.5235490E+01  0.7492840E+03 -0.1963861E-08
  0.5369694E+01  0.6357838E+03 -0.1274412E-07
  0.5503898E+01  0.5357310E+03 -0.5562927E-09
  0.5638103E+01  0.4482677E+03  0.1427729E-07
  0.5772306E+01  0.3724256E+03 -0.2024562E-07
  0.5906510E+01  0.3071802E+03  0.1204249E-07
  0.6040714E+01  0.2514945E+03 -0.3851278E-08
  0.6174919E+01  0.2043372E+03  0.2232397E-07
  0.6309123E+01  0.1647113E+03  0.3113243E-07
  0.6443326E+01  0.1316759E+03  0.2689093E-07
  0.6577531E+01  0.1043526E+03  0.3746617E-07
  0.6711735E+01  0.8193714E+02 -0.1642431E-07
  0.6845939E+01  0.6370138E+02  0.1062884E-07
  0.6980143E+01  0.4899563E+02 -0.1978762E-07
  0.7114347E+01  0.3724309E+02  0.5894052E-07
  0.7248551E+01  0.2794146E+02  0.1653228E-07
  0.7382755E+01  0.2065513E+02  0.1853165E-07
  0.7516960E+01  0.1501012E+02  0.1805548E-07
  0.7651164E+01  0.1068967E+02 -0.6194486E-07
  0.7785367E+01  0.7426715E+01  0.6370406E-07
  0.7919572E+01  0.4999506E+01  0.9472487E-07
  0.8053776E+01  0.3224868E+01  0.1195607E-06
  0.8187980E+01  0.1953541E+01  0.2521931E-06
  0.8322184E+01  0.1065175E+01  0.6776119E-08
  0.8456388E+01  0.4635549E+00  0.5326595E-06
  0.8590592E+01  0.7299461E-01  0.3484743E-05
  0.8724796E+01  0.1654172E+00  0.3141591E+01
  0.8859000E+01  0.2968530E+00  0.3141592E+01
