VARIABLES="w (rad/s)"
"abs(F   1   1)" "angle(F   1   1)"
"abs(F   1   2)" "angle(F   1   2)"
"abs(F   1   3)" "angle(F   1   3)"
"abs(F   1   4)" "angle(F   1   4)"
"abs(F   1   5)" "angle(F   1   5)"
"abs(F   1   6)" "angle(F   1   6)"
Zone t="FKforce - beta =  30.000",I=    20,F=POINT
  0.9904544E+00  0.5884409E+03 -0.1570796E+01  0.3397366E+03 -0.1570793E+01  0.7155417E+04  0.3001730E-08  0.4177658E+02  0.1570779E+01  0.7235881E+02 -0.1570797E+01  0.2863313E-06  0.1617727E+01
  0.1171454E+01  0.8085323E+03 -0.1570796E+01  0.4668067E+03 -0.1570780E+01  0.6901025E+04  0.9835903E-08  0.5809074E+02  0.1570770E+01  0.1006164E+03 -0.1570796E+01  0.3924224E-06  0.1636308E+01
  0.1352454E+01  0.1055372E+04 -0.1570796E+01  0.6093202E+03 -0.1570787E+01  0.6614615E+04 -0.1879868E-07  0.7688725E+02  0.1570809E+01  0.1331721E+03 -0.1570796E+01  0.5108653E-06  0.1658205E+01
  0.1533453E+01  0.1324700E+04 -0.1570796E+01  0.7648162E+03 -0.1570779E+01  0.6300644E+04  0.2017482E-07  0.9805080E+02  0.1570775E+01  0.1698287E+03 -0.1570796E+01  0.6395518E-06  0.1683162E+01
  0.1714453E+01  0.1611930E+04 -0.1570796E+01  0.9306491E+03 -0.1570792E+01  0.5963717E+04  0.8757643E-08  0.1214521E+03  0.1570772E+01  0.2103614E+03 -0.1570796E+01  0.7763427E-06  0.1711265E+01
  0.1895452E+01  0.1912259E+04 -0.1570796E+01  0.1104041E+04 -0.1570803E+01  0.5608910E+04 -0.6729241E-08  0.1469435E+03  0.1570809E+01  0.2545135E+03 -0.1570796E+01  0.9191326E-06  0.1742526E+01
  0.2076452E+01  0.2220728E+04 -0.1570796E+01  0.1282137E+04 -0.1570795E+01  0.5241146E+04 -0.1553138E-07  0.1743596E+03  0.1570798E+01  0.3019996E+03 -0.1570797E+01  0.1065925E-05  0.1776883E+01
  0.2257452E+01  0.2532383E+04 -0.1570796E+01  0.1462069E+04 -0.1570793E+01  0.4865412E+04 -0.1421558E-07  0.2035155E+03  0.1570798E+01  0.3524981E+03 -0.1570796E+01  0.1214893E-05  0.1814298E+01
  0.2438451E+01  0.2842302E+04 -0.1570796E+01  0.1641009E+04 -0.1570798E+01  0.4486601E+04 -0.4454908E-07  0.2342052E+03  0.1570789E+01  0.4056558E+03 -0.1570796E+01  0.1364438E-05  0.1854748E+01
  0.2619451E+01  0.3145757E+04 -0.1570796E+01  0.1816207E+04 -0.1570799E+01  0.4109324E+04  0.4641084E-07  0.2661994E+03  0.1570789E+01  0.4610698E+03 -0.1570796E+01  0.1513204E-05  0.1898062E+01
  0.2800450E+01  0.3438225E+04 -0.1570796E+01  0.1985056E+04 -0.1570797E+01  0.3737853E+04 -0.6798226E-07  0.2992417E+03  0.1570792E+01  0.5183030E+03 -0.1570796E+01  0.1660174E-05  0.1944178E+01
  0.2981450E+01  0.3715487E+04 -0.1570796E+01  0.2145135E+04 -0.1570799E+01  0.3376133E+04  0.6626696E-07  0.3330559E+03  0.1570796E+01  0.5768685E+03 -0.1570796E+01  0.1804608E-05  0.1992962E+01
  0.3162450E+01  0.3973709E+04 -0.1570796E+01  0.2294222E+04 -0.1570794E+01  0.3027604E+04  0.1284858E-07  0.3673268E+03  0.1570791E+01  0.6362286E+03 -0.1570796E+01  0.1946057E-05  0.2044209E+01
  0.3343449E+01  0.4209467E+04 -0.1570796E+01  0.2430335E+04 -0.1570799E+01  0.2695220E+04 -0.1868892E-06  0.4017162E+03  0.1570799E+01  0.6957958E+03 -0.1570796E+01  0.2084351E-05  0.2097666E+01
  0.3524449E+01  0.4419773E+04 -0.1570796E+01  0.2551767E+04 -0.1570798E+01  0.2381400E+04 -0.1228389E-07  0.4358579E+03  0.1570795E+01  0.7549285E+03 -0.1570796E+01  0.2219661E-05  0.2153127E+01
  0.3705448E+01  0.4602146E+04 -0.1570796E+01  0.2657050E+04 -0.1570796E+01  0.2088038E+04 -0.5062101E-07  0.4693521E+03  0.1570797E+01  0.8129400E+03 -0.1570796E+01  0.2352324E-05  0.2210281E+01
  0.3886448E+01  0.4754528E+04 -0.1570796E+01  0.2745029E+04 -0.1570797E+01  0.1816463E+04 -0.1385964E-07  0.5017762E+03  0.1570795E+01  0.8691016E+03 -0.1570796E+01  0.2482858E-05  0.2268773E+01
  0.4067448E+01  0.4875370E+04 -0.1570796E+01  0.2814797E+04 -0.1570795E+01  0.1567502E+04 -0.1418788E-06  0.5326862E+03  0.1570796E+01  0.9226398E+03 -0.1570796E+01  0.2611949E-05  0.2328211E+01
  0.4248447E+01  0.4963601E+04 -0.1570796E+01  0.2865733E+04 -0.1570797E+01  0.1341474E+04 -0.4141566E-07  0.5616157E+03  0.1570798E+01  0.9727540E+03 -0.1570796E+01  0.2740367E-05  0.2388213E+01
  0.4429447E+01  0.5018532E+04 -0.1570796E+01  0.2897451E+04 -0.1570796E+01  0.1138271E+04  0.1223604E-07  0.5880952E+03  0.1570794E+01  0.1018611E+04 -0.1570796E+01  0.2868929E-05  0.2448338E+01
