 VARIABLES="Time (s)"
"AddedMass    1" "IRF    1"
Zone t="DoF    1",I=   100,F=POINT
  0.1000000E+00  0.5626586E+03  0.2601662E+03
  0.2000000E+00  0.5626586E+03  0.2128266E+03
  0.3000000E+00  0.5626586E+03  0.1414137E+03
  0.4000000E+00  0.5626586E+03  0.5595466E+02
  0.5000000E+00  0.5626586E+03 -0.3177885E+02
  0.6000000E+00  0.5626586E+03 -0.1101782E+03
  0.7000000E+00  0.5626586E+03 -0.1696981E+03
  0.8000000E+00  0.5626586E+03 -0.2043577E+03
  0.9000000E+00  0.5626586E+03 -0.2124985E+03
  0.1000000E+01  0.5626586E+03 -0.1966276E+03
  0.1100000E+01  0.5626586E+03 -0.1624169E+03
  0.1200000E+01  0.5626586E+03 -0.1171730E+03
  0.1300000E+01  0.5626586E+03 -0.6822362E+02
  0.1400000E+01  0.5626586E+03 -0.2164247E+02
  0.1500000E+01  0.5626586E+03  0.1842611E+02
  0.1600000E+01  0.5626586E+03  0.4982057E+02
  0.1700000E+01  0.5626586E+03  0.7197152E+02
  0.1800000E+01  0.5626586E+03  0.8533716E+02
  0.1900000E+01  0.5626586E+03  0.9090536E+02
  0.2000000E+01  0.5626586E+03  0.8988271E+02
  0.2100000E+01  0.5626586E+03  0.8356121E+02
  0.2200000E+01  0.5626586E+03  0.7327455E+02
  0.2300000E+01  0.5626586E+03  0.6035140E+02
  0.2400000E+01  0.5626586E+03  0.4602745E+02
  0.2500000E+01  0.5626586E+03  0.3133983E+02
  0.2600000E+01  0.5626586E+03  0.1705627E+02
  0.2700000E+01  0.5626586E+03  0.3680519E+01
  0.2800000E+01  0.5626586E+03 -0.8472078E+01
  0.2900000E+01  0.5626586E+03 -0.1917124E+02
  0.3000000E+01  0.5626586E+03 -0.2819524E+02
  0.3100000E+01  0.5626586E+03 -0.3531293E+02
  0.3200000E+01  0.5626586E+03 -0.4031789E+02
  0.3300000E+01  0.5626586E+03 -0.4308190E+02
  0.3400000E+01  0.5626586E+03 -0.4359050E+02
  0.3500000E+01  0.5626586E+03 -0.4194487E+02
  0.3600000E+01  0.5626586E+03 -0.3833855E+02
  0.3700000E+01  0.5626586E+03 -0.3303199E+02
  0.3800000E+01  0.5626586E+03 -0.2634169E+02
  0.3900000E+01  0.5626586E+03 -0.1864185E+02
  0.4000000E+01  0.5626586E+03 -0.1036365E+02
  0.4100000E+01  0.5626586E+03 -0.1974049E+01
  0.4200000E+01  0.5626586E+03  0.6067230E+01
  0.4300000E+01  0.5626586E+03  0.1335716E+02
  0.4400000E+01  0.5626586E+03  0.1958293E+02
  0.4500000E+01  0.5626586E+03  0.2452374E+02
  0.4600000E+01  0.5626586E+03  0.2802813E+02
  0.4700000E+01  0.5626586E+03  0.2998859E+02
  0.4800000E+01  0.5626586E+03  0.3033709E+02
  0.4900000E+01  0.5626586E+03  0.2906997E+02
  0.5000000E+01  0.5626586E+03  0.2628689E+02
  0.5100000E+01  0.5626586E+03  0.2221396E+02
  0.5200000E+01  0.5626586E+03  0.1718725E+02
  0.5300000E+01  0.5626586E+03  0.1159319E+02
  0.5400000E+01  0.5626586E+03  0.5791531E+01
  0.5500000E+01  0.5626586E+03  0.5829063E-01
  0.5600000E+01  0.5626586E+03 -0.5421835E+01
  0.5700000E+01  0.5626586E+03 -0.1051241E+02
  0.5800000E+01  0.5626586E+03 -0.1505943E+02
  0.5900000E+01  0.5626586E+03 -0.1884628E+02
  0.6000000E+01  0.5626586E+03 -0.2160233E+02
  0.6100000E+01  0.5626586E+03 -0.2306907E+02
  0.6200000E+01  0.5626586E+03 -0.2309322E+02
  0.6300000E+01  0.5626586E+03 -0.2170006E+02
  0.6400000E+01  0.5626586E+03 -0.1910628E+02
  0.6500000E+01  0.5626586E+03 -0.1566232E+02
  0.6600000E+01  0.5626586E+03 -0.1174732E+02
  0.6700000E+01  0.5626586E+03 -0.7663635E+01
  0.6800000E+01  0.5626586E+03 -0.3577300E+01
  0.6900000E+01  0.5626586E+03  0.4708034E+00
  0.7000000E+01  0.5626586E+03  0.4493247E+01
  0.7100000E+01  0.5626586E+03  0.8459343E+01
  0.7200000E+01  0.5626586E+03  0.1222120E+02
  0.7300000E+01  0.5626586E+03  0.1549729E+02
  0.7400000E+01  0.5626586E+03  0.1792492E+02
  0.7500000E+01  0.5626586E+03  0.1916277E+02
  0.7600000E+01  0.5626586E+03  0.1900390E+02
  0.7700000E+01  0.5626586E+03  0.1745665E+02
  0.7800000E+01  0.5626586E+03  0.1476028E+02
  0.7900000E+01  0.5626586E+03  0.1132740E+02
  0.8000000E+01  0.5626586E+03  0.7632070E+01
  0.8100000E+01  0.5626586E+03  0.4080194E+01
  0.8200000E+01  0.5626586E+03  0.9109488E+00
  0.8300000E+01  0.5626586E+03 -0.1839685E+01
  0.8400001E+01  0.5626586E+03 -0.4296949E+01
  0.8500000E+01  0.5626586E+03 -0.6647100E+01
  0.8600000E+01  0.5626586E+03 -0.9015929E+01
  0.8700000E+01  0.5626586E+03 -0.1137585E+02
  0.8800000E+01  0.5626586E+03 -0.1351693E+02
  0.8900001E+01  0.5626586E+03 -0.1509588E+02
  0.9000000E+01  0.5626586E+03 -0.1574425E+02
  0.9100000E+01  0.5626586E+03 -0.1519488E+02
  0.9200000E+01  0.5626586E+03 -0.1338181E+02
  0.9300000E+01  0.5626586E+03 -0.1047470E+02
  0.9400001E+01  0.5626586E+03 -0.6841897E+01
  0.9500000E+01  0.5626586E+03 -0.2954714E+01
  0.9600000E+01  0.5626586E+03  0.7313223E+00
  0.9700000E+01  0.5626586E+03  0.3876266E+01
  0.9800000E+01  0.5626586E+03  0.6311800E+01
  0.9900001E+01  0.5626586E+03  0.8037837E+01
  0.1000000E+02  0.5626586E+03  0.9173742E+01
