 VARIABLES="Time (s)"
"AddedMass    1" "IRF    1"
"AddedMass    2" "IRF    2"
"AddedMass    3" "IRF    3"
"AddedMass    4" "IRF    4"
"AddedMass    5" "IRF    5"
"AddedMass    6" "IRF    6"
Zone t="DoF    1",I=   100,F=POINT
  0.1000000E+00  0.6783468E+03  0.7249794E+02  0.9491824E-07  0.3294923E-08  0.9330663E-06  0.1731065E-04 -0.6862754E-06  0.1086529E-06  0.4824057E+04  0.5162898E+03  0.3620312E-14  0.4554581E-15
  0.2000000E+00  0.6783468E+03  0.6954573E+02  0.9491824E-07  0.3165322E-08  0.9330663E-06  0.1667105E-04 -0.6862754E-06  0.1038984E-06  0.4824057E+04  0.4952630E+03  0.3620312E-14  0.2809338E-15
  0.3000000E+00  0.6783468E+03  0.6472455E+02  0.9491824E-07  0.2953567E-08  0.9330663E-06  0.1562526E-04 -0.6862754E-06  0.9614382E-07  0.4824057E+04  0.4609247E+03  0.3620312E-14 -0.5818377E-18
  0.4000000E+00  0.6783468E+03  0.5817983E+02  0.9491824E-07  0.2665880E-08  0.9330663E-06  0.1420294E-04 -0.6862754E-06  0.8563758E-07  0.4824057E+04  0.4143109E+03  0.3620312E-14 -0.3754320E-15
  0.5000000E+00  0.6783468E+03  0.5010860E+02  0.9491824E-07  0.2310680E-08  0.9330663E-06  0.1244429E-04 -0.6862754E-06  0.7271539E-07  0.4824057E+04  0.3568248E+03  0.3620312E-14 -0.8252376E-15
  0.6000000E+00  0.6783468E+03  0.4075314E+02  0.9491824E-07  0.1898302E-08  0.9330663E-06  0.1039888E-04 -0.6862754E-06  0.5778908E-07  0.4824057E+04  0.2901924E+03  0.3620312E-14 -0.1327621E-14
  0.7000000E+00  0.6783468E+03  0.3039327E+02  0.9491824E-07  0.1440658E-08  0.9330663E-06  0.8124000E-05 -0.6862754E-06  0.4133238E-07  0.4824057E+04  0.2164067E+03  0.3620312E-14 -0.1857068E-14
  0.8000000E+00  0.6783468E+03  0.1933741E+02  0.9491824E-07  0.9508443E-09  0.9330663E-06  0.5683002E-05 -0.6862754E-06  0.2386502E-07  0.4824057E+04  0.1376646E+03  0.3620312E-14 -0.2385932E-14
  0.9000000E+00  0.6783468E+03  0.7912768E+01  0.9491824E-07  0.4427097E-09  0.9330663E-06  0.3143292E-05 -0.6862754E-06  0.5935061E-08  0.4824057E+04  0.5629662E+02  0.3620312E-14 -0.2885531E-14
  0.1000000E+01  0.6783468E+03 -0.3545027E+01  0.9491824E-07 -0.6958276E-10  0.9330663E-06  0.5743087E-06 -0.6862754E-06 -0.1189948E-07  0.4824057E+04 -0.2530649E+02  0.3620312E-14 -0.3327288E-14
  0.1100000E+01  0.6783468E+03 -0.1470252E+02  0.9491824E-07 -0.5720151E-09  0.9330663E-06 -0.1954599E-05 -0.6862754E-06 -0.2908939E-07  0.4824057E+04 -0.1047697E+03  0.3620312E-14 -0.3683900E-14
  0.1200000E+01  0.6783468E+03 -0.2523883E+02  0.9491824E-07 -0.1051158E-08  0.9330663E-06 -0.4376232E-05 -0.6862754E-06 -0.4511251E-07  0.4824057E+04 -0.1798074E+03  0.3620312E-14 -0.3930459E-14
  0.1300000E+01  0.6783468E+03 -0.3485569E+02  0.9491824E-07 -0.1494574E-08  0.9330663E-06 -0.6627540E-05 -0.6862754E-06 -0.5949097E-07  0.4824057E+04 -0.2482952E+03  0.3620312E-14 -0.4045518E-14
  0.1400000E+01  0.6783468E+03 -0.4328650E+02  0.9491824E-07 -0.1891204E-08  0.9330663E-06 -0.8651456E-05 -0.6862754E-06 -0.7180687E-07  0.4824057E+04 -0.3083344E+03  0.3620312E-14 -0.4012030E-14
  0.1500000E+01  0.6783468E+03 -0.5030453E+02  0.9491824E-07 -0.2231682E-08  0.9330663E-06 -0.1039852E-04 -0.6862754E-06 -0.8171565E-07  0.4824057E+04 -0.3583100E+03  0.3620312E-14 -0.3818154E-14
  0.1600000E+01  0.6783468E+03 -0.5572950E+02  0.9491824E-07 -0.2508588E-08  0.9330663E-06 -0.1182825E-04 -0.6862754E-06 -0.8895680E-07  0.4824057E+04 -0.3969382E+03  0.3620312E-14 -0.3457881E-14
  0.1700000E+01  0.6783468E+03 -0.5943280E+02  0.9491824E-07 -0.2716642E-08  0.9330663E-06 -0.1291018E-04 -0.6862754E-06 -0.9336175E-07  0.4824057E+04 -0.4233030E+03  0.3620312E-14 -0.2931444E-14
  0.1800000E+01  0.6783468E+03 -0.6134086E+02  0.9491824E-07 -0.2852799E-08  0.9330663E-06 -0.1362465E-04 -0.6862754E-06 -0.9485833E-07  0.4824057E+04 -0.4368808E+03  0.3620312E-14 -0.2245536E-14
  0.1900000E+01  0.6783468E+03 -0.6143678E+02  0.9491824E-07 -0.2916284E-08  0.9330663E-06 -0.1396310E-04 -0.6862754E-06 -0.9347191E-07  0.4824057E+04 -0.4375512E+03  0.3620312E-14 -0.1413258E-14
  0.2000000E+01  0.6783468E+03 -0.5976002E+02  0.9491824E-07 -0.2908546E-08  0.9330663E-06 -0.1392817E-04 -0.6862754E-06 -0.8932317E-07  0.4824057E+04 -0.4255958E+03  0.3620312E-14 -0.4538650E-15
  0.2100000E+01  0.6783468E+03 -0.5640436E+02  0.9491824E-07 -0.2833119E-08  0.9330663E-06 -0.1353330E-04 -0.6862754E-06 -0.8262230E-07  0.4824057E+04 -0.4016827E+03  0.3620312E-14  0.6077288E-15
  0.2200000E+01  0.6783468E+03 -0.5151403E+02  0.9491824E-07 -0.2695441E-08  0.9330663E-06 -0.1280214E-04 -0.6862754E-06 -0.7366067E-07  0.4824057E+04 -0.3668394E+03  0.3620312E-14  0.1741675E-14
  0.2300000E+01  0.6783468E+03 -0.4527827E+02  0.9491824E-07 -0.2502584E-08  0.9330663E-06 -0.1176746E-04 -0.6862754E-06 -0.6279914E-07  0.4824057E+04 -0.3224142E+03  0.3620312E-14  0.2914079E-14
  0.2400000E+01  0.6783468E+03 -0.3792448E+02  0.9491824E-07 -0.2262965E-08  0.9330663E-06 -0.1046999E-04 -0.6862754E-06 -0.5045430E-07  0.4824057E+04 -0.2700270E+03  0.3620312E-14  0.4088094E-14
  0.2500000E+01  0.6783468E+03 -0.2971036E+02  0.9491824E-07 -0.1985996E-08  0.9330663E-06 -0.8956900E-05 -0.6862754E-06 -0.3708324E-07  0.4824057E+04 -0.2115136E+03  0.3620312E-14  0.5225117E-14
  0.2600000E+01  0.6783468E+03 -0.2091485E+02  0.9491824E-07 -0.1681714E-08  0.9330663E-06 -0.7280152E-05 -0.6862754E-06 -0.2316630E-07  0.4824057E+04 -0.1488611E+03  0.3620312E-14  0.6286074E-14
  0.2700000E+01  0.6783468E+03 -0.1182892E+02  0.9491824E-07 -0.1360425E-08  0.9330663E-06 -0.5494745E-05 -0.6862754E-06 -0.9190083E-08  0.4824057E+04 -0.8414204E+02  0.3620312E-14  0.7232802E-14
  0.2800000E+01  0.6783468E+03 -0.2745721E+01  0.9491824E-07 -0.1032318E-08  0.9330663E-06 -0.3656868E-05 -0.6862754E-06  0.4370140E-08  0.4824057E+04 -0.1944462E+02  0.3620312E-14  0.8029374E-14
  0.2900000E+01  0.6783468E+03  0.6048915E+01  0.9491824E-07 -0.7071080E-09  0.9330663E-06 -0.1822112E-05 -0.6862754E-06  0.1706727E-07  0.4824057E+04  0.4319518E+02  0.3620312E-14  0.8643404E-14
  0.3000000E+01  0.6783468E+03  0.1428559E+02  0.9491824E-07 -0.3937467E-09  0.9330663E-06 -0.4373668E-07 -0.6862754E-06  0.2849758E-07  0.4824057E+04  0.1018585E+03  0.3620312E-14  0.9047278E-14
  0.3100000E+01  0.6783468E+03  0.2171997E+02  0.9491824E-07 -0.1001106E-09  0.9330663E-06  0.1628992E-05 -0.6862754E-06  0.3831484E-07  0.4824057E+04  0.1548051E+03  0.3620312E-14  0.9219257E-14
  0.3200000E+01  0.6783468E+03  0.2814013E+02  0.9491824E-07  0.1672002E-09  0.9330663E-06  0.3152199E-05 -0.6862754E-06  0.4624134E-07  0.4824057E+04  0.2005255E+03  0.3620312E-14  0.9144324E-14
  0.3300000E+01  0.6783468E+03  0.3337291E+02  0.9491824E-07  0.4030484E-09  0.9330663E-06  0.4488649E-05 -0.6862754E-06  0.5207693E-07  0.4824057E+04  0.2377867E+03  0.3620312E-14  0.8814965E-14
  0.3400000E+01  0.6783468E+03  0.3728876E+02  0.9491824E-07  0.6038517E-09  0.9330663E-06  0.5608700E-05 -0.6862754E-06  0.5570465E-07  0.4824057E+04  0.2656661E+03  0.3620312E-14  0.8231574E-14
  0.3500000E+01  0.6783468E+03  0.3980504E+02  0.9491824E-07  0.7676305E-09  0.9330663E-06  0.6490984E-05 -0.6862754E-06  0.5709333E-07  0.4824057E+04  0.2835752E+03  0.3620312E-14  0.7402694E-14
  0.3600000E+01  0.6783468E+03  0.4088766E+02  0.9491824E-07  0.8939845E-09  0.9330663E-06  0.7122798E-05 -0.6862754E-06  0.5629697E-07  0.4824057E+04  0.2912716E+03  0.3620312E-14  0.6344924E-14
  0.3700000E+01  0.6783468E+03  0.4055111E+02  0.9491824E-07  0.9840062E-09  0.9330663E-06  0.7500179E-05 -0.6862754E-06  0.5345105E-07  0.4824057E+04  0.2888591E+03  0.3620312E-14  0.5082614E-14
  0.3800000E+01  0.6783468E+03  0.3885682E+02  0.9491824E-07  0.1040135E-08  0.9330663E-06  0.7627682E-05 -0.6862754E-06  0.4876539E-07  0.4824057E+04  0.2767754E+03  0.3620312E-14  0.3647231E-14
  0.3900000E+01  0.6783468E+03  0.3590990E+02  0.9491824E-07  0.1066003E-08  0.9330663E-06  0.7517883E-05 -0.6862754E-06  0.4251494E-07  0.4824057E+04  0.2557696E+03  0.3620312E-14  0.2076501E-14
  0.4000000E+01  0.6783468E+03  0.3185458E+02  0.9491824E-07  0.1066151E-08  0.9330663E-06  0.7190616E-05 -0.6862754E-06  0.3502757E-07  0.4824057E+04  0.2268694E+03  0.3620312E-14  0.4133537E-15
  0.4100000E+01  0.6783468E+03  0.2686830E+02  0.9491824E-07  0.1045831E-08  0.9330663E-06  0.6671997E-05 -0.6862754E-06  0.2667045E-07  0.4824057E+04  0.1913392E+03  0.3620312E-14 -0.1295409E-14
  0.4200000E+01  0.6783468E+03  0.2115485E+02  0.9491824E-07  0.1010707E-08  0.9330663E-06  0.5993246E-05 -0.6862754E-06  0.1783478E-07  0.4824057E+04  0.1506308E+03  0.3620312E-14 -0.3000537E-14
  0.4300000E+01  0.6783468E+03  0.1493682E+02  0.9491824E-07  0.9665875E-09  0.9330663E-06  0.5189399E-05 -0.6862754E-06  0.8919898E-08  0.4824057E+04  0.1063300E+03  0.3620312E-14 -0.4651865E-14
  0.4400000E+01  0.6783468E+03  0.8447340E+01  0.9491824E-07  0.9191308E-09  0.9330663E-06  0.4297906E-05 -0.6862754E-06  0.3172178E-09  0.4824057E+04  0.6009762E+02  0.3620312E-14 -0.6199946E-14
  0.4500000E+01  0.6783468E+03  0.1921907E+01  0.9491824E-07  0.8736367E-09  0.9330663E-06  0.3357210E-05 -0.6862754E-06 -0.7605413E-08  0.4824057E+04  0.1361131E+02  0.3620312E-14 -0.7597698E-14
  0.4600000E+01  0.6783468E+03 -0.4409842E+01  0.9491824E-07  0.8347881E-09  0.9330663E-06  0.2405334E-05 -0.6862754E-06 -0.1451831E-07  0.4824057E+04 -0.3149314E+02  0.3620312E-14 -0.8801935E-14
  0.4700000E+01  0.6783468E+03 -0.1033199E+02  0.9491824E-07  0.8064634E-09  0.9330663E-06  0.1478543E-05 -0.6862754E-06 -0.2014283E-07  0.4824057E+04 -0.7367767E+02  0.3620312E-14 -0.9774886E-14
  0.4800000E+01  0.6783468E+03 -0.1564931E+02  0.9491824E-07  0.7915891E-09  0.9330663E-06  0.6101166E-06 -0.6862754E-06 -0.2426213E-07  0.4824057E+04 -0.1115517E+03  0.3620312E-14 -0.1048547E-13
  0.4900000E+01  0.6783468E+03 -0.2019380E+02  0.9491824E-07  0.7920423E-09  0.9330663E-06 -0.1707481E-06 -0.6862754E-06 -0.2672966E-07  0.4824057E+04 -0.1439186E+03  0.3620312E-14 -0.1091047E-13
  0.5000000E+01  0.6783468E+03 -0.2382964E+02  0.9491824E-07  0.8085909E-09  0.9330663E-06 -0.8398194E-06 -0.6862754E-06 -0.2747451E-07  0.4824057E+04 -0.1698112E+03  0.3620312E-14 -0.1103537E-13
  0.5100000E+01  0.6783468E+03 -0.2645724E+02  0.9491824E-07  0.8408941E-09  0.9330663E-06 -0.1378516E-05 -0.6862754E-06 -0.2650393E-07  0.4824057E+04 -0.1885201E+03  0.3620312E-14 -0.1085499E-13
  0.5200000E+01  0.6783468E+03 -0.2801576E+02  0.9491824E-07  0.8875369E-09  0.9330663E-06 -0.1774357E-05 -0.6862754E-06 -0.2390233E-07  0.4824057E+04 -0.1996123E+03  0.3620312E-14 -0.1037379E-13
  0.5300000E+01  0.6783468E+03 -0.2848420E+02  0.9491824E-07  0.9461393E-09  0.9330663E-06 -0.2021168E-05 -0.6862754E-06 -0.1982774E-07  0.4824057E+04 -0.2029386E+03  0.3620312E-14 -0.9605853E-14
  0.5400000E+01  0.6783468E+03 -0.2788120E+02  0.9491824E-07  0.1013458E-08  0.9330663E-06 -0.2119066E-05 -0.6862754E-06 -0.1450485E-07  0.4824057E+04 -0.1986319E+03  0.3620312E-14 -0.8574515E-14
  0.5500000E+01  0.6783468E+03 -0.2626328E+02  0.9491824E-07  0.1085576E-08  0.9330663E-06 -0.2074192E-05 -0.6862754E-06 -0.8215462E-08  0.4824057E+04 -0.1870954E+03  0.3620312E-14 -0.7311773E-14
  0.5600000E+01  0.6783468E+03 -0.2372183E+02  0.9491824E-07  0.1158077E-08  0.9330663E-06 -0.1898243E-05 -0.6862754E-06 -0.1286696E-08  0.4824057E+04 -0.1689804E+03  0.3620312E-14 -0.5857309E-14
  0.5700000E+01  0.6783468E+03 -0.2037895E+02  0.9491824E-07  0.1226252E-08  0.9330663E-06 -0.1607803E-05 -0.6862754E-06  0.5922911E-08  0.4824057E+04 -0.1451568E+03  0.3620312E-14 -0.4257252E-14
  0.5800000E+01  0.6783468E+03 -0.1638228E+02  0.9491824E-07  0.1285307E-08  0.9330663E-06 -0.1223535E-05 -0.6862754E-06  0.1303843E-07  0.4824057E+04 -0.1166768E+03  0.3620312E-14 -0.2562753E-14
  0.5900000E+01  0.6783468E+03 -0.1189902E+02  0.9491824E-07  0.1330566E-08  0.9330663E-06 -0.7692296E-06 -0.6862754E-06  0.1968426E-07  0.4824057E+04 -0.8473176E+02  0.3620312E-14 -0.8283139E-15
  0.6000000E+01  0.6783468E+03 -0.7109335E+01  0.9491824E-07  0.1357707E-08  0.9330663E-06 -0.2707742E-06 -0.6862754E-06  0.2550061E-07  0.4824057E+04 -0.5060517E+02  0.3620312E-14  0.8900027E-15
  0.6100000E+01  0.6783468E+03 -0.2199576E+01  0.9491824E-07  0.1362897E-08  0.9330663E-06  0.2449149E-06 -0.6862754E-06  0.3015877E-07  0.4824057E+04 -0.1562471E+02  0.3620312E-14  0.2536431E-14
  0.6200000E+01  0.6783468E+03  0.2644658E+01  0.9491824E-07  0.1342974E-08  0.9330663E-06  0.7509596E-06 -0.6862754E-06  0.3337550E-07  0.4824057E+04  0.1888734E+02  0.3620312E-14  0.4057358E-14
  0.6300000E+01  0.6783468E+03  0.7245263E+01  0.9491824E-07  0.1295600E-08  0.9330663E-06  0.1221562E-05 -0.6862754E-06  0.3492596E-07  0.4824057E+04  0.5166217E+02  0.3620312E-14  0.5403178E-14
  0.6400000E+01  0.6783468E+03  0.1143795E+02  0.9491824E-07  0.1219283E-08  0.9330663E-06  0.1632959E-05 -0.6862754E-06  0.3465447E-07  0.4824057E+04  0.8152952E+02  0.3620312E-14  0.6530047E-14
  0.6500000E+01  0.6783468E+03  0.1507792E+02  0.9491824E-07  0.1113522E-08  0.9330663E-06  0.1964268E-05 -0.6862754E-06  0.3248220E-07  0.4824057E+04  0.1074577E+03  0.3620312E-14  0.7401374E-14
  0.6600000E+01  0.6783468E+03  0.1804460E+02  0.9491824E-07  0.9787650E-09  0.9330663E-06  0.2198217E-05 -0.6862754E-06  0.2841231E-07  0.4824057E+04  0.1285883E+03  0.3620312E-14  0.7989198E-14
  0.6700000E+01  0.6783468E+03  0.2024560E+02  0.9491824E-07  0.8164245E-09  0.9330663E-06  0.2321667E-05 -0.6862754E-06  0.2253174E-07  0.4824057E+04  0.1442629E+03  0.3620312E-14  0.8275186E-14
  0.6800000E+01  0.6783468E+03  0.2161929E+02  0.9491824E-07  0.6288057E-09  0.9330663E-06  0.2326013E-05 -0.6862754E-06  0.1500962E-07  0.4824057E+04  0.1540430E+03  0.3620312E-14  0.8251411E-14
  0.6900000E+01  0.6783468E+03  0.2213643E+02  0.9491824E-07  0.4190487E-09  0.9330663E-06  0.2207367E-05 -0.6862754E-06  0.6092548E-08  0.4824057E+04  0.1577203E+03  0.3620312E-14  0.7920712E-14
  0.7000000E+01  0.6783468E+03  0.2180042E+02  0.9491824E-07  0.1910143E-09  0.9330663E-06  0.1966570E-05 -0.6862754E-06 -0.3903513E-08  0.4824057E+04  0.1553192E+03  0.3620312E-14  0.7296713E-14
  0.7100000E+01  0.6783468E+03  0.2064639E+02  0.9491824E-07 -0.5084374E-10  0.9330663E-06  0.1609021E-05 -0.6862754E-06 -0.1460427E-07  0.4824057E+04  0.1470905E+03  0.3620312E-14  0.6403481E-14
  0.7200000E+01  0.6783468E+03  0.1873915E+02  0.9491824E-07 -0.3016197E-09  0.9330663E-06  0.1144351E-05 -0.6862754E-06 -0.2559049E-07  0.4824057E+04  0.1334959E+03  0.3620312E-14  0.5274791E-14
  0.7300000E+01  0.6783468E+03  0.1617013E+02  0.9491824E-07 -0.5560958E-09  0.9330663E-06  0.5859542E-06 -0.6862754E-06 -0.3641304E-07  0.4824057E+04  0.1151872E+03  0.3620312E-14  0.3953094E-14
  0.7400000E+01  0.6783468E+03  0.1305327E+02  0.9491824E-07 -0.8088890E-09  0.9330663E-06 -0.4964532E-07 -0.6862754E-06 -0.4661088E-07  0.4824057E+04  0.9297619E+02  0.3620312E-14  0.2488094E-14
  0.7500000E+01  0.6783468E+03  0.9520320E+01  0.9491824E-07 -0.1054609E-08  0.9330663E-06 -0.7434590E-06 -0.6862754E-06 -0.5572831E-07  0.4824057E+04  0.6780164E+02  0.3620312E-14  0.9351006E-15
  0.7600000E+01  0.6783468E+03  0.5715490E+01  0.9491824E-07 -0.1287984E-08  0.9330663E-06 -0.1474800E-05 -0.6862754E-06 -0.6333316E-07  0.4824057E+04  0.4069113E+02  0.3620312E-14 -0.6468175E-15
  0.7700000E+01  0.6783468E+03  0.1789753E+01  0.9491824E-07 -0.1503973E-08  0.9330663E-06 -0.2222077E-05 -0.6862754E-06 -0.6903453E-07  0.4824057E+04  0.1272034E+02  0.3620312E-14 -0.2196903E-14
  0.7800000E+01  0.6783468E+03 -0.2104874E+01  0.9491824E-07 -0.1697908E-08  0.9330663E-06 -0.2963573E-05 -0.6862754E-06 -0.7249934E-07  0.4824057E+04 -0.1502768E+02  0.3620312E-14 -0.3654793E-14
  0.7900000E+01  0.6783468E+03 -0.5821162E+01  0.9491824E-07 -0.1865542E-08  0.9330663E-06 -0.3678227E-05 -0.6862754E-06 -0.7346698E-07  0.4824057E+04 -0.4150403E+02  0.3620312E-14 -0.4962708E-14
  0.8000000E+01  0.6783468E+03 -0.9222013E+01  0.9491824E-07 -0.2003155E-08  0.9330663E-06 -0.4346315E-05 -0.6862754E-06 -0.7176144E-07  0.4824057E+04 -0.6573202E+02  0.3620312E-14 -0.6067513E-14
  0.8100000E+01  0.6783468E+03 -0.1218544E+02  0.9491824E-07 -0.2107565E-08  0.9330663E-06 -0.4950081E-05 -0.6862754E-06 -0.6730117E-07  0.4824057E+04 -0.8684257E+02  0.3620312E-14 -0.6922693E-14
  0.8200000E+01  0.6783468E+03 -0.1460872E+02  0.9491824E-07 -0.2176203E-08  0.9330663E-06 -0.5474219E-05 -0.6862754E-06 -0.6010492E-07  0.4824057E+04 -0.1041040E+03  0.3620312E-14 -0.7490100E-14
  0.8300000E+01  0.6783468E+03 -0.1641203E+02  0.9491824E-07 -0.2207117E-08  0.9330663E-06 -0.5906314E-05 -0.6862754E-06 -0.5029409E-07  0.4824057E+04 -0.1169478E+03  0.3620312E-14 -0.7741453E-14
  0.8400001E+01  0.6783468E+03 -0.1754078E+02  0.9491824E-07 -0.2198953E-08  0.9330663E-06 -0.6237056E-05 -0.6862754E-06 -0.3809200E-07  0.4824057E+04 -0.1249851E+03  0.3620312E-14 -0.7659544E-14
  0.8500000E+01  0.6783468E+03 -0.1796723E+02  0.9491824E-07 -0.2151022E-08  0.9330663E-06 -0.6460403E-05 -0.6862754E-06 -0.2381870E-07  0.4824057E+04 -0.1280185E+03  0.3620312E-14 -0.7238988E-14
  0.8600000E+01  0.6783468E+03 -0.1769095E+02  0.9491824E-07 -0.2063212E-08  0.9330663E-06 -0.6573550E-05 -0.6862754E-06 -0.7881612E-08  0.4824057E+04 -0.1260450E+03  0.3620312E-14 -0.6486682E-14
  0.8700000E+01  0.6783468E+03 -0.1673827E+02  0.9491824E-07 -0.1936036E-08  0.9330663E-06 -0.6576819E-05 -0.6862754E-06  0.9235257E-08  0.4824057E+04 -0.1192526E+03  0.3620312E-14 -0.5421818E-14
  0.8800000E+01  0.6783468E+03 -0.1516070E+02  0.9491824E-07 -0.1770590E-08  0.9330663E-06 -0.6473410E-05 -0.6862754E-06  0.2698819E-07  0.4824057E+04 -0.1080083E+03  0.3620312E-14 -0.4075344E-14
  0.8900001E+01  0.6783468E+03 -0.1303248E+02  0.9491824E-07 -0.1568576E-08  0.9330663E-06 -0.6269061E-05 -0.6862754E-06  0.4478996E-07  0.4824057E+04 -0.9284120E+02  0.3620312E-14 -0.2489189E-14
  0.9000000E+01  0.6783468E+03 -0.1044734E+02  0.9491824E-07 -0.1332277E-08  0.9330663E-06 -0.5971644E-05 -0.6862754E-06  0.6203047E-07  0.4824057E+04 -0.7441922E+02  0.3620312E-14 -0.7150066E-15
  0.9100000E+01  0.6783468E+03 -0.7514383E+01  0.9491824E-07 -0.1064566E-08  0.9330663E-06 -0.5590678E-05 -0.6862754E-06  0.7809825E-07  0.4824057E+04 -0.5351987E+02  0.3620312E-14  0.1187557E-14
  0.9200000E+01  0.6783468E+03 -0.4353847E+01  0.9491824E-07 -0.7689221E-09  0.9330663E-06 -0.5136847E-05 -0.6862754E-06  0.9240087E-07  0.4824057E+04 -0.3099980E+02  0.3620312E-14  0.3152632E-14
  0.9300000E+01  0.6783468E+03 -0.1092079E+01  0.9491824E-07 -0.4494115E-09  0.9330663E-06 -0.4621495E-05 -0.6862754E-06  0.1043877E-06  0.4824057E+04 -0.7759289E+01  0.3620312E-14  0.5110495E-14
  0.9400001E+01  0.6783468E+03  0.2143206E+01  0.9491824E-07 -0.1107415E-09  0.9330663E-06 -0.4056134E-05 -0.6862754E-06  0.1135697E-06  0.4824057E+04  0.1529169E+02  0.3620312E-14  0.6989775E-14
  0.9500000E+01  0.6783468E+03  0.5227869E+01  0.9491824E-07  0.2417914E-09  0.9330663E-06 -0.3452017E-05 -0.6862754E-06  0.1195379E-06  0.4824057E+04  0.3726876E+02  0.3620312E-14  0.8719948E-14
  0.9600000E+01  0.6783468E+03  0.8046144E+01  0.9491824E-07  0.6022666E-09  0.9330663E-06 -0.2819738E-05 -0.6862754E-06  0.1219807E-06  0.4824057E+04  0.5734711E+02  0.3620312E-14  0.1023394E-13
  0.9700000E+01  0.6783468E+03  0.1049473E+02  0.9491824E-07  0.9641821E-09  0.9330663E-06 -0.2168930E-05 -0.6862754E-06  0.1206968E-06  0.4824057E+04  0.7479079E+02  0.3620312E-14  0.1147035E-13
  0.9800000E+01  0.6783468E+03  0.1248660E+02  0.9491824E-07  0.1320446E-08  0.9330663E-06 -0.1508031E-05 -0.6862754E-06  0.1156048E-06  0.4824057E+04  0.8897990E+02  0.3620312E-14  0.1237590E-13
  0.9900001E+01  0.6783468E+03  0.1395393E+02  0.9491824E-07  0.1663533E-08  0.9330663E-06 -0.8441685E-06 -0.6862754E-06  0.1067491E-06  0.4824057E+04  0.9943134E+02  0.3620312E-14  0.1290725E-13
  0.1000000E+02  0.6783468E+03  0.1485044E+02  0.9491824E-07  0.1985456E-08  0.9330663E-06 -0.1831279E-06 -0.6862754E-06  0.9430141E-07  0.4824057E+04  0.1058154E+03  0.3620312E-14  0.1303289E-13
Zone t="DoF    2",I=   100,F=POINT
  0.1000000E+00  0.8746326E-08 -0.1680512E-07  0.6783468E+03  0.7249792E+02  0.1490668E-05  0.3477100E-07 -0.4824055E+04 -0.5162896E+03 -0.7846891E-06  0.1563502E-06  0.5472817E-06  0.5828933E-07
  0.2000000E+00  0.8746326E-08 -0.1603648E-07  0.6783468E+03  0.6954571E+02  0.1490668E-05  0.3310484E-07 -0.4824055E+04 -0.4952628E+03 -0.7846891E-06  0.1484524E-06  0.5472817E-06  0.5591950E-07
  0.3000000E+00  0.8746326E-08 -0.1478080E-07  0.6783468E+03  0.6472453E+02  0.1490668E-05  0.3043818E-07 -0.4824055E+04 -0.4609246E+03 -0.7846891E-06  0.1355947E-06  0.5472817E-06  0.5204931E-07
  0.4000000E+00  0.8746326E-08 -0.1307535E-07  0.6783468E+03  0.5817981E+02  0.1490668E-05  0.2693046E-07 -0.4824055E+04 -0.4143107E+03 -0.7846891E-06  0.1182237E-06  0.5472817E-06  0.4679541E-07
  0.5000000E+00  0.8746326E-08 -0.1097076E-07  0.6783468E+03  0.5010859E+02  0.1490668E-05  0.2279242E-07 -0.4824055E+04 -0.3568247E+03 -0.7846891E-06  0.9694210E-07  0.5472817E-06  0.4031578E-07
  0.6000000E+00  0.8746326E-08 -0.8529514E-08  0.6783468E+03  0.4075313E+02  0.1490668E-05  0.1827497E-07 -0.4824055E+04 -0.2901923E+03 -0.7846891E-06  0.7248791E-07  0.5472817E-06  0.3280474E-07
  0.7000000E+00  0.8746326E-08 -0.5824124E-08  0.6783468E+03  0.3039326E+02  0.1490668E-05  0.1365530E-07 -0.4824055E+04 -0.2164066E+03 -0.7846891E-06  0.4570789E-07  0.5472817E-06  0.2448674E-07
  0.8000000E+00  0.8746326E-08 -0.2934946E-08  0.6783468E+03  0.1933740E+02  0.1490668E-05  0.9221270E-08 -0.4824055E+04 -0.1376646E+03 -0.7846891E-06  0.1752780E-07  0.5472817E-06  0.1560913E-07
  0.9000000E+00  0.8746326E-08  0.5216777E-10  0.6783468E+03  0.7912765E+01  0.1490668E-05  0.5255427E-08 -0.4824055E+04 -0.5629664E+02 -0.7846891E-06 -0.1108027E-07  0.5472817E-06  0.6434378E-08
  0.1000000E+01  0.8746326E-08  0.3048411E-08  0.6783468E+03 -0.3545026E+01  0.1490668E-05  0.2018249E-08 -0.4824055E+04  0.2530643E+02 -0.7846891E-06 -0.3913219E-07  0.5472817E-06 -0.2768266E-08
  0.1100000E+01  0.8746326E-08  0.5964666E-08  0.6783468E+03 -0.1470252E+02  0.1490668E-05 -0.2673023E-09 -0.4824055E+04  0.1047695E+03 -0.7846891E-06 -0.6566642E-07  0.5472817E-06 -0.1173129E-07
  0.1200000E+01  0.8746326E-08  0.8714108E-08  0.6783468E+03 -0.2523883E+02  0.1490668E-05 -0.1430052E-08 -0.4824055E+04  0.1798073E+03 -0.7846891E-06 -0.8977776E-07  0.5472817E-06 -0.2019721E-07
  0.1300000E+01  0.8746326E-08  0.1121480E-07  0.6783468E+03 -0.3485568E+02  0.1490668E-05 -0.1362368E-08 -0.4824055E+04  0.2482950E+03 -0.7846891E-06 -0.1106491E-06  0.5472817E-06 -0.2792667E-07
  0.1400000E+01  0.8746326E-08  0.1339207E-07  0.6783468E+03 -0.4328649E+02  0.1490668E-05 -0.2938663E-10 -0.4824055E+04  0.3083342E+03 -0.7846891E-06 -0.1275797E-06  0.5472817E-06 -0.3470566E-07
  0.1500000E+01  0.8746326E-08  0.1518076E-07  0.6783468E+03 -0.5030452E+02  0.1490668E-05  0.2525805E-08 -0.4824055E+04  0.3583098E+03 -0.7846891E-06 -0.1400098E-06  0.5472817E-06 -0.4035212E-07
  0.1600000E+01  0.8746326E-08  0.1652712E-07  0.6783468E+03 -0.5572949E+02  0.1490668E-05  0.6180298E-08 -0.4824055E+04  0.3969380E+03 -0.7846891E-06 -0.1475398E-06  0.5472817E-06 -0.4472122E-07
  0.1700000E+01  0.8746326E-08  0.1739038E-07  0.6783468E+03 -0.5943279E+02  0.1490668E-05  0.1073366E-07 -0.4824055E+04  0.4233028E+03 -0.7846891E-06 -0.1499432E-06  0.5472817E-06 -0.4770949E-07
  0.1800000E+01  0.8746326E-08  0.1774394E-07  0.6783468E+03 -0.6134085E+02  0.1490668E-05  0.1591441E-07 -0.4824055E+04  0.4368806E+03 -0.7846891E-06 -0.1471748E-06  0.5472817E-06 -0.4925766E-07
  0.1900000E+01  0.8746326E-08  0.1757620E-07  0.6783468E+03 -0.6143676E+02  0.1490668E-05  0.2139011E-07 -0.4824055E+04  0.4375510E+03 -0.7846891E-06 -0.1393706E-06  0.5472817E-06 -0.4935181E-07
  0.2000000E+01  0.8746326E-08  0.1689081E-07  0.6783468E+03 -0.5976001E+02  0.1490668E-05  0.2678127E-07 -0.4824055E+04  0.4255956E+03 -0.7846891E-06 -0.1268429E-06  0.5472817E-06 -0.4802328E-07
  0.2100000E+01  0.8746326E-08  0.1570663E-07  0.6783468E+03 -0.5640434E+02  0.1490668E-05  0.3167831E-07 -0.4824055E+04  0.4016825E+03 -0.7846891E-06 -0.1100679E-06  0.5472817E-06 -0.4534692E-07
  0.2200000E+01  0.8746326E-08  0.1405711E-07  0.6783468E+03 -0.5151402E+02  0.1490668E-05  0.3566025E-07 -0.4824055E+04  0.3668392E+03 -0.7846891E-06 -0.8966838E-07  0.5472817E-06 -0.4143806E-07
  0.2300000E+01  0.8746326E-08  0.1198932E-07  0.6783468E+03 -0.4527826E+02  0.1490668E-05  0.3831586E-07 -0.4824055E+04  0.3224141E+03 -0.7846891E-06 -0.6639078E-07  0.5472817E-06 -0.3644817E-07
  0.2400000E+01  0.8746326E-08  0.9562524E-08  0.6783468E+03 -0.3792447E+02  0.1490668E-05  0.3926505E-07 -0.4824055E+04  0.2700270E+03 -0.7846891E-06 -0.4107779E-07  0.5472817E-06 -0.3055934E-07
  0.2500000E+01  0.8746326E-08  0.6846490E-08  0.6783468E+03 -0.2971035E+02  0.1490668E-05  0.3817930E-07 -0.4824055E+04  0.2115136E+03 -0.7846891E-06 -0.1463843E-07  0.5472817E-06 -0.2397798E-07
  0.2600000E+01  0.8746326E-08  0.3919359E-08  0.6783468E+03 -0.2091484E+02  0.1490668E-05  0.3480288E-07 -0.4824055E+04  0.1488611E+03 -0.7846891E-06  0.1198511E-07  0.5472817E-06 -0.1692761E-07
  0.2700000E+01  0.8746326E-08  0.8654101E-09  0.6783468E+03 -0.1182891E+02  0.1490668E-05  0.2896862E-07 -0.4824055E+04  0.8414210E+02 -0.7846891E-06  0.3785080E-07  0.5472817E-06 -0.9641443E-08
  0.2800000E+01  0.8746326E-08 -0.2227474E-08  0.6783468E+03 -0.2745716E+01  0.1490668E-05  0.2061359E-07 -0.4824055E+04  0.1944473E+02 -0.7846891E-06  0.6205077E-07  0.5472817E-06 -0.2354508E-08
  0.2900000E+01  0.8746326E-08 -0.5270353E-08  0.6783468E+03  0.6048918E+01  0.1490668E-05  0.9789900E-08 -0.4824055E+04 -0.4319502E+02 -0.7846891E-06  0.8374303E-07  0.5472817E-06  0.4703971E-08
  0.3000000E+01  0.8746326E-08 -0.8175811E-08  0.6783468E+03  0.1428559E+02  0.1490668E-05 -0.3330161E-08 -0.4824055E+04 -0.1018583E+03 -0.7846891E-06  0.1021813E-06  0.5472817E-06  0.1131787E-07
  0.3100000E+01  0.8746326E-08 -0.1086054E-07  0.6783468E+03  0.2171997E+02  0.1490668E-05 -0.1845226E-07 -0.4824055E+04 -0.1548049E+03 -0.7846891E-06  0.1167413E-06  0.5472817E-06  0.1729109E-07
  0.3200000E+01  0.8746326E-08 -0.1324774E-07  0.6783468E+03  0.2814012E+02  0.1490668E-05 -0.3516472E-07 -0.4824055E+04 -0.2005253E+03 -0.7846891E-06  0.1269419E-06  0.5472817E-06  0.2245346E-07
  0.3300000E+01  0.8746326E-08 -0.1526933E-07  0.6783468E+03  0.3337290E+02  0.1490668E-05 -0.5294751E-07 -0.4824055E+04 -0.2377864E+03 -0.7846891E-06  0.1324617E-06  0.5472817E-06  0.2666582E-07
  0.3400000E+01  0.8746326E-08 -0.1686795E-07  0.6783468E+03  0.3728876E+02  0.1490668E-05 -0.7118769E-07 -0.4824055E+04 -0.2656658E+03 -0.7846891E-06  0.1331494E-06  0.5472817E-06  0.2982394E-07
  0.3500000E+01  0.8746326E-08 -0.1799849E-07  0.6783468E+03  0.3980503E+02  0.1490668E-05 -0.8919837E-07 -0.4824055E+04 -0.2835749E+03 -0.7846891E-06  0.1290284E-06  0.5472817E-06  0.3186110E-07
  0.3600000E+01  0.8746326E-08 -0.1862950E-07  0.6783468E+03  0.4088765E+02  0.1490668E-05 -0.1062429E-06 -0.4824055E+04 -0.2912714E+03 -0.7846891E-06  0.1202942E-06  0.5472817E-06  0.3274954E-07
  0.3700000E+01  0.8746326E-08 -0.1874392E-07  0.6783468E+03  0.4055110E+02  0.1490668E-05 -0.1215614E-06 -0.4824055E+04 -0.2888589E+03 -0.7846891E-06  0.1073072E-06  0.5472817E-06  0.3250038E-07
  0.3800000E+01  0.8746326E-08 -0.1833961E-07  0.6783468E+03  0.3885681E+02  0.1490668E-05 -0.1344016E-06 -0.4824055E+04 -0.2767751E+03 -0.7846891E-06  0.9057744E-07  0.5472817E-06  0.3116237E-07
  0.3900000E+01  0.8746326E-08 -0.1742929E-07  0.6783468E+03  0.3590989E+02  0.1490668E-05 -0.1440483E-06 -0.4824055E+04 -0.2557694E+03 -0.7846891E-06  0.7074616E-07  0.5472817E-06  0.2881931E-07
  0.4000000E+01  0.8746326E-08 -0.1604011E-07  0.6783468E+03  0.3185457E+02  0.1490668E-05 -0.1498559E-06 -0.4824055E+04 -0.2268693E+03 -0.7846891E-06  0.4856149E-07  0.5472817E-06  0.2558634E-07
  0.4100000E+01  0.8746326E-08 -0.1421282E-07  0.6783468E+03  0.2686829E+02  0.1490668E-05 -0.1512776E-06 -0.4824055E+04 -0.1913391E+03 -0.7846891E-06  0.2485050E-07  0.5472817E-06  0.2160529E-07
  0.4200000E+01  0.8746326E-08 -0.1200045E-07  0.6783468E+03  0.2115485E+02  0.1490668E-05 -0.1478929E-06 -0.4824055E+04 -0.1506308E+03 -0.7846891E-06  0.4889547E-09  0.5472817E-06  0.1703916E-07
  0.4300000E+01  0.8746326E-08 -0.9466804E-08  0.6783468E+03  0.1493681E+02  0.1490668E-05 -0.1394329E-06 -0.4824055E+04 -0.1063300E+03 -0.7846891E-06 -0.2363041E-07  0.5472817E-06  0.1206604E-07
  0.4400000E+01  0.8746326E-08 -0.6684460E-08  0.6783468E+03  0.8447333E+01  0.1490668E-05 -0.1257992E-06 -0.4824055E+04 -0.6009767E+02 -0.7846891E-06 -0.4663084E-07  0.5472817E-06  0.6872574E-08
  0.4500000E+01  0.8746326E-08 -0.3732662E-08  0.6783468E+03  0.1921901E+01  0.1490668E-05 -0.1070766E-06 -0.4824055E+04 -0.1361137E+02 -0.7846891E-06 -0.6768300E-07  0.5472817E-06  0.1647371E-08
  0.4600000E+01  0.8746326E-08 -0.6949707E-09  0.6783468E+03 -0.4409845E+01  0.1490668E-05 -0.8354285E-07 -0.4824055E+04  0.3149304E+02 -0.7846891E-06 -0.8603461E-07  0.5472817E-06 -0.3425584E-08
  0.4700000E+01  0.8746326E-08  0.2343186E-08  0.6783468E+03 -0.1033199E+02  0.1490668E-05 -0.5566678E-07 -0.4824055E+04  0.7367751E+02 -0.7846891E-06 -0.1010377E-06  0.5472817E-06 -0.8173219E-08
  0.4800000E+01  0.8746326E-08  0.5296922E-08  0.6783468E+03 -0.1564931E+02  0.1490668E-05 -0.2410406E-07 -0.4824055E+04  0.1115515E+03 -0.7846891E-06 -0.1121704E-06  0.5472817E-06 -0.1243896E-07
  0.4900000E+01  0.8746326E-08  0.8084434E-08  0.6783468E+03 -0.2019380E+02  0.1490668E-05  0.1032013E-07 -0.4824055E+04  0.1439184E+03 -0.7846891E-06 -0.1190567E-06  0.5472817E-06 -0.1608798E-07
  0.5000000E+01  0.8746326E-08  0.1062925E-07  0.6783468E+03 -0.2382964E+02  0.1490668E-05  0.4662932E-07 -0.4824055E+04  0.1698109E+03 -0.7846891E-06 -0.1214775E-06  0.5472817E-06 -0.1901118E-07
  0.5100000E+01  0.8746326E-08  0.1286242E-07  0.6783468E+03 -0.2645725E+02  0.1490668E-05  0.8372522E-07 -0.4824055E+04  0.1885199E+03 -0.7846891E-06 -0.1193787E-06  0.5472817E-06 -0.2112841E-07