 VARIABLES="Time (s)"
"AddedMass    1" "IRF    1"
"AddedMass    2" "IRF    2"
"AddedMass    3" "IRF    3"
Zone t="DoF    1",I=   100,F=POINT
  0.1000000E+00  0.3520733E+03  0.4250261E+04 -0.3569787E-05  0.5148512E-04 -0.1592795E+03 -0.1176552E+04
  0.2000000E+00  0.3520733E+03  0.2367518E+04 -0.3569787E-05  0.1161390E-04 -0.1592795E+03 -0.7254399E+03
  0.3000000E+00  0.3520733E+03  0.1952121E+02 -0.3569787E-05 -0.2600913E-04 -0.1592795E+03 -0.1405224E+03
  0.4000000E+00  0.3520733E+03 -0.1988597E+04 -0.3569787E-05 -0.3913914E-04 -0.1592795E+03  0.4010416E+03
  0.5000000E+00  0.3520733E+03 -0.3086016E+04 -0.3569787E-05 -0.2338419E-04 -0.1592795E+03  0.7607179E+03
  0.6000000E+00  0.3520733E+03 -0.3135505E+04 -0.3569787E-05  0.5583930E-05 -0.1592795E+03  0.8823693E+03
  0.7000000E+00  0.3520733E+03 -0.2409360E+04 -0.3569787E-05  0.2383901E-04 -0.1592795E+03  0.7954213E+03
  0.8000000E+00  0.3520733E+03 -0.1383925E+04 -0.3569787E-05  0.1647789E-04 -0.1592795E+03  0.5827788E+03
  0.9000000E+00  0.3520733E+03 -0.4834896E+03 -0.3569787E-05 -0.1192435E-04 -0.1592795E+03  0.3351581E+03
  0.1000000E+01  0.3520733E+03  0.8836604E+02 -0.3569787E-05 -0.4096774E-04 -0.1592795E+03  0.1160997E+03
  0.1100000E+01  0.3520733E+03  0.3616426E+03 -0.3569787E-05 -0.4935816E-04 -0.1592795E+03 -0.4881708E+02
  0.1200000E+01  0.3520733E+03  0.4866896E+03 -0.3569787E-05 -0.3029253E-04 -0.1592795E+03 -0.1610086E+03
  0.1300000E+01  0.3520733E+03  0.5900511E+03 -0.3569787E-05  0.3718053E-05 -0.1592795E+03 -0.2298763E+03
  0.1400000E+01  0.3520733E+03  0.6933165E+03 -0.3569787E-05  0.2993132E-04 -0.1592795E+03 -0.2601338E+03
  0.1500000E+01  0.3520733E+03  0.7310411E+03 -0.3569787E-05  0.3171355E-04 -0.1592795E+03 -0.2515766E+03
  0.1600000E+01  0.3520733E+03  0.6332572E+03 -0.3569787E-05  0.1033988E-04 -0.1592795E+03 -0.2070505E+03
  0.1700000E+01  0.3520733E+03  0.4012013E+03 -0.3569787E-05 -0.1619332E-04 -0.1592795E+03 -0.1391465E+03
  0.1800000E+01  0.3520733E+03  0.1207421E+03 -0.3569787E-05 -0.2640379E-04 -0.1592795E+03 -0.6872753E+02
  0.1900000E+01  0.3520733E+03 -0.9074242E+02 -0.3569787E-05 -0.1100996E-04 -0.1592795E+03 -0.1581655E+02
  0.2000000E+01  0.3520733E+03 -0.1604098E+03 -0.3569787E-05  0.2024758E-04 -0.1592795E+03  0.1037376E+02
  0.2100000E+01  0.3520733E+03 -0.1028807E+03 -0.3569787E-05  0.4554039E-04 -0.1592795E+03  0.1486028E+02
  0.2200000E+01  0.3520733E+03 -0.1960513E+01 -0.3569787E-05  0.4662187E-04 -0.1592795E+03  0.1137256E+02
  0.2300000E+01  0.3520733E+03  0.5183978E+02 -0.3569787E-05  0.2194195E-04 -0.1592795E+03  0.1207885E+02
  0.2400000E+01  0.3520733E+03  0.2150616E+02 -0.3569787E-05 -0.1221320E-04 -0.1592795E+03  0.1993311E+02
  0.2500000E+01  0.3520733E+03 -0.5962991E+02 -0.3569787E-05 -0.3334086E-04 -0.1592795E+03  0.2868914E+02
  0.2600000E+01  0.3520733E+03 -0.1218943E+03 -0.3569787E-05 -0.2871344E-04 -0.1592795E+03  0.2978474E+02
  0.2700000E+01  0.3520733E+03 -0.1154077E+03 -0.3569787E-05 -0.4242065E-05 -0.1592795E+03  0.2035797E+02
  0.2800000E+01  0.3520733E+03 -0.4647730E+02 -0.3569787E-05  0.2011612E-04 -0.1592795E+03  0.6209993E+01
  0.2900000E+01  0.3520733E+03  0.3027554E+02 -0.3569787E-05  0.2502496E-04 -0.1592795E+03 -0.2349689E+01
  0.3000000E+01  0.3520733E+03  0.5509732E+02 -0.3569787E-05  0.5880086E-05 -0.1592795E+03  0.1627062E+01
  0.3100000E+01  0.3520733E+03  0.7896410E+01 -0.3569787E-05 -0.2384177E-04 -0.1592795E+03  0.1625769E+02
  0.3200000E+01  0.3520733E+03 -0.7810297E+02 -0.3569787E-05 -0.4240983E-04 -0.1592795E+03  0.3193858E+02
  0.3300000E+01  0.3520733E+03 -0.1421802E+03 -0.3569787E-05 -0.3573189E-04 -0.1592795E+03  0.3819785E+02
  0.3400000E+01  0.3520733E+03 -0.1407654E+03 -0.3569787E-05 -0.7798787E-05 -0.1592795E+03  0.3116874E+02
  0.3500000E+01  0.3520733E+03 -0.7772038E+02 -0.3569787E-05  0.2192546E-04 -0.1592795E+03  0.1615880E+02
  0.3600000E+01  0.3520733E+03  0.9186525E+00 -0.3569787E-05  0.3237334E-04 -0.1592795E+03  0.3492817E+01
  0.3700000E+01  0.3520733E+03  0.4225240E+02 -0.3569787E-05  0.1607078E-04 -0.1592795E+03  0.7940419E+00
  0.3800000E+01  0.3520733E+03  0.2494230E+02 -0.3569787E-05 -0.1527518E-04 -0.1592795E+03  0.7451898E+01
  0.3900000E+01  0.3520733E+03 -0.2717740E+02 -0.3569787E-05 -0.3887659E-04 -0.1592795E+03  0.1532160E+02
  0.4000000E+01  0.3520733E+03 -0.6502569E+02 -0.3569787E-05 -0.3692402E-04 -0.1592795E+03  0.1505105E+02
  0.4100000E+01  0.3520733E+03 -0.5178551E+02 -0.3569787E-05 -0.9167238E-05 -0.1592795E+03  0.3274653E+01
  0.4200000E+01  0.3520733E+03  0.1005298E+02 -0.3569787E-05  0.2694006E-04 -0.1592795E+03 -0.1467635E+02
  0.4300000E+01  0.3520733E+03  0.8142396E+02 -0.3569787E-05  0.4858615E-04 -0.1592795E+03 -0.2853851E+02
  0.4400000E+01  0.3520733E+03  0.1161492E+03 -0.3569787E-05  0.4357776E-04 -0.1592795E+03 -0.3056012E+02
  0.4500000E+01  0.3520733E+03  0.9470220E+02 -0.3569787E-05  0.1853278E-04 -0.1592795E+03 -0.2111698E+02
  0.4600000E+01  0.3520733E+03  0.3752695E+02 -0.3569787E-05 -0.6477824E-05 -0.1592795E+03 -0.8374170E+01
  0.4700000E+01  0.3520733E+03 -0.1116059E+02 -0.3569787E-05 -0.1285026E-04 -0.1592795E+03 -0.2253157E+01
  0.4800000E+01  0.3520733E+03 -0.1636540E+02 -0.3569787E-05  0.2907532E-05 -0.1592795E+03 -0.7148539E+01
  0.4900000E+01  0.3520733E+03  0.2246200E+02 -0.3569787E-05  0.2667747E-04 -0.1592795E+03 -0.1874287E+02
  0.5000000E+01  0.3520733E+03  0.7214050E+02 -0.3569787E-05  0.3716181E-04 -0.1592795E+03 -0.2724334E+02
  0.5100000E+01  0.3520733E+03  0.9116284E+02 -0.3569787E-05  0.2167279E-04 -0.1592795E+03 -0.2465356E+02
  0.5200000E+01  0.3520733E+03  0.6056798E+02 -0.3569787E-05 -0.1416933E-04 -0.1592795E+03 -0.1074298E+02
  0.5300000E+01  0.3520733E+03 -0.2411816E+01 -0.3569787E-05 -0.4989040E-04 -0.1592795E+03  0.6661115E+01
  0.5400000E+01  0.3520733E+03 -0.5747275E+02 -0.3569787E-05 -0.6434066E-04 -0.1592795E+03  0.1727184E+02
  0.5500000E+01  0.3520733E+03 -0.7093015E+02 -0.3569787E-05 -0.5041762E-04 -0.1592795E+03  0.1574209E+02
  0.5600000E+01  0.3520733E+03 -0.3992765E+02 -0.3569787E-05 -0.1975680E-04 -0.1592795E+03  0.5464839E+01
  0.5700000E+01  0.3520733E+03  0.6384951E+01 -0.3569787E-05  0.5956457E-05 -0.1592795E+03 -0.3997208E+01
  0.5800000E+01  0.3520733E+03  0.2904951E+02 -0.3569787E-05  0.1073668E-04 -0.1592795E+03 -0.3969062E+01
  0.5900000E+01  0.3520733E+03  0.8193818E+01 -0.3569787E-05 -0.4306564E-05 -0.1592795E+03  0.6934140E+01
  0.6000000E+01  0.3520733E+03 -0.4264420E+02 -0.3569787E-05 -0.2219593E-04 -0.1592795E+03  0.2173505E+02
  0.6100000E+01  0.3520733E+03 -0.8692634E+02 -0.3569787E-05 -0.2304578E-04 -0.1592795E+03  0.3013165E+02
  0.6200000E+01  0.3520733E+03 -0.9220802E+02 -0.3569787E-05  0.6797707E-06 -0.1592795E+03  0.2598195E+02
  0.6300000E+01  0.3520733E+03 -0.5383887E+02 -0.3569787E-05  0.3778778E-04 -0.1592795E+03  0.1179405E+02
  0.6400000E+01  0.3520733E+03  0.1971951E+01 -0.3569787E-05  0.6567206E-04 -0.1592795E+03 -0.3046281E+01
  0.6500000E+01  0.3520733E+03  0.3762590E+02 -0.3569787E-05  0.6621862E-04 -0.1592795E+03 -0.9026803E+01
  0.6600000E+01  0.3520733E+03  0.3156916E+02 -0.3569787E-05  0.3888686E-04 -0.1592795E+03 -0.3340519E+01
  0.6700000E+01  0.3520733E+03 -0.6431087E+01 -0.3569787E-05  0.1443699E-05 -0.1592795E+03  0.8154552E+01
  0.6800000E+01  0.3520733E+03 -0.4310700E+02 -0.3569787E-05 -0.2236723E-04 -0.1592795E+03  0.1526656E+02
  0.6900000E+01  0.3520733E+03 -0.4656314E+02 -0.3569787E-05 -0.1951954E-04 -0.1592795E+03  0.1095175E+02
  0.7000000E+01  0.3520733E+03 -0.9782786E+01 -0.3569787E-05  0.3185081E-05 -0.1592795E+03 -0.3485770E+01
  0.7100000E+01  0.3520733E+03  0.4433009E+02 -0.3569787E-05  0.2419642E-04 -0.1592795E+03 -0.1924181E+02
  0.7200000E+01  0.3520733E+03  0.7982696E+02 -0.3569787E-05  0.2295646E-04 -0.1592795E+03 -0.2630376E+02
  0.7300000E+01  0.3520733E+03  0.7392138E+02 -0.3569787E-05 -0.4923026E-05 -0.1592795E+03 -0.2063486E+02
  0.7400000E+01  0.3520733E+03  0.3331358E+02 -0.3569787E-05 -0.4396285E-04 -0.1592795E+03 -0.7051899E+01
  0.7500000E+01  0.3520733E+03 -0.1110257E+02 -0.3569787E-05 -0.6936635E-04 -0.1592795E+03  0.4277839E+01
  0.7600000E+01  0.3520733E+03 -0.2703922E+02 -0.3569787E-05 -0.6438925E-04 -0.1592795E+03  0.5191144E+01
  0.7700000E+01  0.3520733E+03 -0.4303313E+01 -0.3569787E-05 -0.3216512E-04 -0.1592795E+03 -0.4584150E+01
  0.7800000E+01  0.3520733E+03  0.3811584E+02 -0.3569787E-05  0.6484426E-05 -0.1592795E+03 -0.1726052E+02
  0.7900000E+01  0.3520733E+03  0.6631038E+02 -0.3569787E-05  0.2773501E-04 -0.1592795E+03 -0.2265884E+02
  0.8000000E+01  0.3520733E+03  0.5646999E+02 -0.3569787E-05  0.2147482E-04 -0.1592795E+03 -0.1562230E+02
  0.8100000E+01  0.3520733E+03  0.1226336E+02 -0.3569787E-05 -0.1907929E-05 -0.1592795E+03  0.1951576E+00
  0.8200000E+01  0.3520733E+03 -0.3789079E+02 -0.3569787E-05 -0.1953172E-04 -0.1592795E+03  0.1488242E+02
  0.8300000E+01  0.3520733E+03 -0.6154075E+02 -0.3569787E-05 -0.1308455E-04 -0.1592795E+03  0.1934549E+02
  0.8400001E+01  0.3520733E+03 -0.4562185E+02 -0.3569787E-05  0.1734879E-04 -0.1592795E+03  0.1178960E+02
  0.8500000E+01  0.3520733E+03 -0.5570457E+01 -0.3569787E-05  0.5273135E-04 -0.1592795E+03 -0.1054373E+01
  0.8600000E+01  0.3520733E+03  0.2633321E+02 -0.3569787E-05  0.6835271E-04 -0.1592795E+03 -0.8841030E+01
  0.8700000E+01  0.3520733E+03  0.2470993E+02 -0.3569787E-05  0.5153894E-04 -0.1592795E+03 -0.5113142E+01
  0.8800000E+01  0.3520733E+03 -0.1045990E+02 -0.3569787E-05  0.1111173E-04 -0.1592795E+03  0.8011393E+01
  0.8900001E+01  0.3520733E+03 -0.5400165E+02 -0.3569787E-05 -0.2830222E-04 -0.1592795E+03  0.2134405E+02
  0.9000000E+01  0.3520733E+03 -0.7404485E+02 -0.3569787E-05 -0.4322584E-04 -0.1592795E+03  0.2523650E+02
  0.9100000E+01  0.3520733E+03 -0.5522971E+02 -0.3569787E-05 -0.2757919E-04 -0.1592795E+03  0.1653067E+02
  0.9200000E+01  0.3520733E+03 -0.9786882E+01 -0.3569787E-05  0.3348918E-05 -0.1592795E+03  0.8573408E+00
  0.9300000E+01  0.3520733E+03  0.3147898E+02 -0.3569787E-05  0.2407980E-04 -0.1592795E+03 -0.1138200E+02
  0.9400001E+01  0.3520733E+03  0.4153925E+02 -0.3569787E-05  0.1736059E-04 -0.1592795E+03 -0.1244164E+02
  0.9500000E+01  0.3520733E+03  0.1653264E+02 -0.3569787E-05 -0.1329906E-04 -0.1592795E+03 -0.2736202E+01
  0.9600000E+01  0.3520733E+03 -0.2179784E+02 -0.3569787E-05 -0.4597045E-04 -0.1592795E+03  0.9526336E+01
  0.9700000E+01  0.3520733E+03 -0.4227125E+02 -0.3569787E-05 -0.5594526E-04 -0.1592795E+03  0.1431959E+02
  0.9800000E+01  0.3520733E+03 -0.2706859E+02 -0.3569787E-05 -0.3359552E-04 -0.1592795E+03  0.7056595E+01
  0.9900001E+01  0.3520733E+03  0.1531732E+02 -0.3569787E-05  0.8289032E-05 -0.1592795E+03 -0.8063823E+01
  0.1000000E+02  0.3520733E+03  0.5633897E+02 -0.3569787E-05  0.4301061E-04 -0.1592795E+03 -0.2104125E+02
Zone t="DoF    2",I=   100,F=POINT
  0.1000000E+00  0.2926405E-05 -0.2287024E-04  0.5426008E+03  0.2315385E+03  0.6892141E-06  0.5847343E-05
  0.2000000E+00  0.2926405E-05 -0.1328063E-04  0.5426008E+03  0.1899136E+03  0.6892141E-06  0.4408746E-05
  0.3000000E+00  0.2926405E-05 -0.1001160E-05  0.5426008E+03  0.1269359E+03  0.6892141E-06  0.2420625E-05
  0.4000000E+00  0.2926405E-05  0.9989156E-05  0.5426008E+03  0.5125459E+02  0.6892141E-06  0.3448729E-06
  0.5000000E+00  0.2926405E-05  0.1653112E-04  0.5426008E+03 -0.2685085E+02  0.6892141E-06 -0.1410253E-05
  0.6000000E+00  0.2926405E-05  0.1735583E-04  0.5426008E+03 -0.9708972E+02  0.6892141E-06 -0.2607514E-05
  0.7000000E+00  0.2926405E-05  0.1331555E-04  0.5426008E+03 -0.1508428E+03  0.6892141E-06 -0.3225736E-05
  0.8000000E+00  0.2926405E-05  0.6791719E-05  0.5426008E+03 -0.1825586E+03  0.6892141E-06 -0.3427721E-05
  0.9000000E+00  0.2926405E-05  0.6360463E-06  0.5426008E+03 -0.1905233E+03  0.6892141E-06 -0.3473202E-05
  0.1000000E+01  0.2926405E-05 -0.2880880E-05  0.5426008E+03 -0.1768062E+03  0.6892141E-06 -0.3609744E-05
  0.1100000E+01  0.2926405E-05 -0.2750930E-05  0.5426008E+03 -0.1464120E+03  0.6892141E-06 -0.3971719E-05
  0.1200000E+01  0.2926405E-05  0.5946546E-06  0.5426008E+03 -0.1059066E+03  0.6892141E-06 -0.4510529E-05
  0.1300000E+01  0.2926405E-05  0.5549202E-05  0.5426008E+03 -0.6193235E+02  0.6892141E-06 -0.4975697E-05
  0.1400000E+01  0.2926405E-05  0.9882227E-05  0.5426008E+03 -0.2001757E+02  0.6892141E-06 -0.4963517E-05
  0.1500000E+01  0.2926405E-05  0.1142750E-04  0.5426008E+03  0.1606478E+02  0.6892141E-06 -0.4038787E-05
  0.1600000E+01  0.2926405E-05  0.8773466E-05  0.5426008E+03  0.4435504E+02  0.6892141E-06 -0.1909550E-05
  0.1700000E+01  0.2926405E-05  0.1804582E-05  0.5426008E+03  0.6434663E+02  0.6892141E-06  0.1398587E-05
  0.1800000E+01  0.2926405E-05 -0.8089668E-05  0.5426008E+03  0.7646232E+02  0.6892141E-06  0.5444031E-05
  0.1900000E+01  0.2926405E-05 -0.1829360E-04  0.5426008E+03  0.8159366E+02  0.6892141E-06  0.9412145E-05
  0.2000000E+01  0.2926405E-05 -0.2574394E-04  0.5426008E+03  0.8081685E+02  0.6892141E-06  0.1231619E-04
  0.2100000E+01  0.2926405E-05 -0.2799140E-04  0.5426008E+03  0.7527516E+02  0.6892141E-06  0.1330206E-04
  0.2200000E+01  0.2926405E-05 -0.2413540E-04  0.5426008E+03  0.6614455E+02  0.6892141E-06  0.1194467E-04
  0.2300000E+01  0.2926405E-05 -0.1520142E-04  0.5426008E+03  0.5459651E+02  0.6892141E-06  0.8412781E-05
  0.2400000E+01  0.2926405E-05 -0.3743005E-05  0.5426008E+03  0.4172468E+02  0.6892141E-06  0.3427213E-05
  0.2500000E+01  0.2926405E-05  0.7185578E-05  0.5426008E+03  0.2845616E+02  0.6892141E-06 -0.1973797E-05
  0.2600000E+01  0.2926405E-05  0.1521804E-04  0.5426008E+03  0.1549408E+02  0.6892141E-06 -0.6763964E-05
  0.2700000E+01  0.2926405E-05  0.1946195E-04  0.5426008E+03  0.3324142E+01  0.6892141E-06 -0.1021526E-04
  0.2800000E+01  0.2926405E-05  0.2052372E-04  0.5426008E+03 -0.7724463E+01  0.6892141E-06 -0.1203194E-04
  0.2900000E+01  0.2926405E-05  0.1981500E-04  0.5426008E+03 -0.1740217E+02  0.6892141E-06 -0.1230099E-04
  0.3000000E+01  0.2926405E-05  0.1856005E-04  0.5426008E+03 -0.2548940E+02  0.6892141E-06 -0.1131552E-04
  0.3100000E+01  0.2926405E-05  0.1706551E-04  0.5426008E+03 -0.3179310E+02  0.6892141E-06 -0.9380137E-05
  0.3200000E+01  0.2926405E-05  0.1464364E-04  0.5426008E+03 -0.3617460E+02  0.6892141E-06 -0.6699809E-05
  0.3300000E+01  0.2926405E-05  0.1020203E-04  0.5426008E+03 -0.3857832E+02  0.6892141E-06 -0.3396560E-05
  0.3400000E+01  0.2926405E-05  0.3140903E-05  0.5426008E+03 -0.3903563E+02  0.6892141E-06  0.3766137E-06
  0.3500000E+01  0.2926405E-05 -0.5959918E-05  0.5426008E+03 -0.3764347E+02  0.6892141E-06  0.4307578E-05
  0.3600000E+01  0.2926405E-05 -0.1525734E-04  0.5426008E+03 -0.3453839E+02  0.6892141E-06  0.7872199E-05
  0.3700000E+01  0.2926405E-05 -0.2223162E-04  0.5426008E+03 -0.2989070E+02  0.6892141E-06  0.1040696E-04
  0.3800000E+01  0.2926405E-05 -0.2467137E-04  0.5426008E+03 -0.2392563E+02  0.6892141E-06  0.1129508E-04
  0.3900000E+01  0.2926405E-05 -0.2160349E-04  0.5426008E+03 -0.1695466E+02  0.6892141E-06  0.1019778E-04
  0.4000000E+01  0.2926405E-05 -0.1376264E-04  0.5426008E+03 -0.9387699E+01  0.6892141E-06  0.7235389E-05
  0.4100000E+01  0.2926405E-05 -0.3416030E-05  0.5426008E+03 -0.1703264E+01  0.6892141E-06  0.3035169E-05
  0.4200000E+01  0.2926405E-05  0.6369136E-05  0.5426008E+03  0.5619213E+01  0.6892141E-06 -0.1392754E-05
  0.4300000E+01  0.2926405E-05  0.1272998E-04  0.5426008E+03  0.1217638E+02  0.6892141E-06 -0.4927716E-05
  0.4400000E+01  0.2926405E-05  0.1393117E-04  0.5426008E+03  0.1769052E+02  0.6892141E-06 -0.6677832E-05
  0.4500000E+01  0.2926405E-05  0.9907974E-05  0.5426008E+03  0.2200824E+02  0.6892141E-06 -0.6270387E-05
  0.4600000E+01  0.2926405E-05  0.2265136E-05  0.5426008E+03  0.2505698E+02  0.6892141E-06 -0.3984121E-05
  0.4700000E+01  0.2926405E-05 -0.6267393E-05  0.5426008E+03  0.2679080E+02  0.6892141E-06 -0.6626049E-06
  0.4800000E+01  0.2926405E-05 -0.1275414E-04  0.5426008E+03  0.2716241E+02  0.6892141E-06  0.2572179E-05
  0.4900000E+01  0.2926405E-05 -0.1505131E-04  0.5426008E+03  0.2614047E+02  0.6892141E-06  0.4706463E-05
  0.5000000E+01  0.2926405E-05 -0.1252948E-04  0.5426008E+03  0.2375936E+02  0.6892141E-06  0.5174156E-05
  0.5100000E+01  0.2926405E-05 -0.6236892E-05  0.5426008E+03  0.2016706E+02  0.6892141E-06  0.4014593E-05
  0.5200000E+01  0.2926405E-05  0.1584715E-05  0.5426008E+03  0.1563581E+02  0.6892141E-06  0.1787640E-05
  0.5300000E+01  0.2926405E-05  0.8453676E-05  0.5426008E+03  0.1052117E+02  0.6892141E-06 -0.7099211E-06
  0.5400000E+01  0.2926405E-05  0.1266833E-04  0.5426008E+03  0.5187347E+01  0.6892141E-06 -0.2793640E-05
  0.5500000E+01  0.2926405E-05  0.1393182E-04  0.5426008E+03 -0.6413254E-01  0.6892141E-06 -0.4145274E-05
  0.5600000E+01  0.2926405E-05  0.1328567E-04  0.5426008E+03 -0.5025764E+01  0.6892141E-06 -0.4859727E-05
  0.5700000E+01  0.2926405E-05  0.1238389E-04  0.5426008E+03 -0.9563343E+01  0.6892141E-06 -0.5277342E-05
  0.5800000E+01  0.2926405E-05  0.1247434E-04  0.5426008E+03 -0.1356060E+02  0.6892141E-06 -0.5701141E-05
  0.5900000E+01  0.2926405E-05  0.1361551E-04  0.5426008E+03 -0.1686740E+02  0.6892141E-06 -0.6154396E-05
  0.6000000E+01  0.2926405E-05  0.1454925E-04  0.5426008E+03 -0.1928653E+02  0.6892141E-06 -0.6310028E-05
  0.6100000E+01  0.2926405E-05  0.1331687E-04  0.5426008E+03 -0.2061248E+02  0.6892141E-06 -0.5633184E-05
  0.6200000E+01  0.2926405E-05  0.8318930E-05  0.5426008E+03 -0.2070352E+02  0.6892141E-06 -0.3667677E-05
  0.6300000E+01  0.2926405E-05 -0.7162647E-06  0.5426008E+03 -0.1955016E+02  0.6892141E-06 -0.3239877E-06
  0.6400000E+01  0.2926405E-05 -0.1235038E-04  0.5426008E+03 -0.1730194E+02  0.6892141E-06  0.3975418E-05
  0.6500000E+01  0.2926405E-05 -0.2384098E-04  0.5426008E+03 -0.1423648E+02  0.6892141E-06  0.8368849E-05
  0.6600000E+01  0.2926405E-05 -0.3214936E-04  0.5426008E+03 -0.1068204E+02  0.6892141E-06  0.1182017E-04
  0.6700000E+01  0.2926405E-05 -0.3507997E-04  0.5426008E+03 -0.6928190E+01  0.6892141E-06  0.1346399E-04
  0.6800000E+01  0.2926405E-05 -0.3204027E-04  0.5426008E+03 -0.3163612E+01  0.6892141E-06  0.1288941E-04
  0.6900000E+01  0.2926405E-05 -0.2411660E-04  0.5426008E+03  0.5325878E+00  0.6892141E-06  0.1025399E-04
  0.7000000E+01  0.2926405E-05 -0.1349437E-04  0.5426008E+03  0.4146412E+01  0.6892141E-06  0.6196003E-05
  0.7100000E+01  0.2926405E-05 -0.2540509E-05  0.5426008E+03  0.7654052E+01  0.6892141E-06  0.1595284E-05
  0.7200000E+01  0.2926405E-05  0.7020029E-05  0.5426008E+03  0.1095344E+02  0.6892141E-06 -0.2712954E-05
  0.7300000E+01  0.2926405E-05  0.1449602E-04  0.5426008E+03  0.1383454E+02  0.6892141E-06 -0.6160533E-05
  0.7400000E+01  0.2926405E-05  0.2008701E-04  0.5426008E+03  0.1600543E+02  0.6892141E-06 -0.8531208E-05
  0.7500000E+01  0.2926405E-05  0.2435161E-04  0.5426008E+03  0.1716768E+02  0.6892141E-06 -0.9896182E-05
  0.7600000E+01  0.2926405E-05  0.2759195E-04  0.5426008E+03  0.1711301E+02  0.6892141E-06 -0.1044974E-04
  0.7700000E+01  0.2926405E-05  0.2946633E-04  0.5426008E+03  0.1580628E+02  0.6892141E-06 -0.1033148E-04
  0.7800000E+01  0.2926405E-05  0.2901644E-04  0.5426008E+03  0.1341976E+02  0.6892141E-06 -0.9521778E-05
  0.7900000E+01  0.2926405E-05  0.2510009E-04  0.5426008E+03  0.1030229E+02  0.6892141E-06 -0.7860572E-05
  0.8000000E+01  0.2926405E-05  0.1703633E-04  0.5426008E+03  0.6890426E+01  0.6892141E-06 -0.5181125E-05
  0.8100000E+01  0.2926405E-05  0.5173014E-05  0.5426008E+03  0.3588491E+01  0.6892141E-06 -0.1494000E-05
  0.8200000E+01  0.2926405E-05 -0.8894015E-05  0.5426008E+03  0.6625926E+00  0.6892141E-06  0.2873154E-05
  0.8300000E+01  0.2926405E-05 -0.2258597E-04  0.5426008E+03 -0.1815688E+01  0.6892141E-06  0.7261322E-05
  0.8400001E+01  0.2926405E-05 -0.3302654E-04  0.5426008E+03 -0.3950604E+01  0.6892141E-06  0.1081856E-04
  0.8500000E+01  0.2926405E-05 -0.3790903E-04  0.5426008E+03 -0.5937857E+01  0.6892141E-06  0.1274955E-04
  0.8600000E+01  0.2926405E-05 -0.3621466E-04  0.5426008E+03 -0.7944490E+01  0.6892141E-06  0.1257805E-04
  0.8700000E+01  0.2926405E-05 -0.2850700E-04  0.5426008E+03 -0.1000242E+02  0.6892141E-06  0.1031323E-04
  0.8800000E+01  0.2926405E-05 -0.1669675E-04  0.5426008E+03 -0.1195713E+02  0.6892141E-06  0.6450096E-05
  0.8900001E+01  0.2926405E-05 -0.3390698E-05  0.5426008E+03 -0.1349523E+02  0.6892141E-06  0.1806263E-05
  0.9000000E+01  0.2926405E-05  0.8901608E-05  0.5426008E+03 -0.1424182E+02  0.6892141E-06 -0.2732733E-05
  0.9100000E+01  0.2926405E-05  0.1839166E-04  0.5426008E+03 -0.1389105E+02  0.6892141E-06 -0.6452710E-05
  0.9200000E+01  0.2926405E-05  0.2426196E-04  0.5426008E+03 -0.1232317E+02  0.6892141E-06 -0.8945062E-05
  0.9300000E+01  0.2926405E-05  0.2652579E-04  0.5426008E+03 -0.9661347E+01  0.6892141E-06 -0.1010431E-04
  0.9400001E+01  0.2926405E-05  0.2565133E-04  0.5426008E+03 -0.6251843E+01  0.6892141E-06 -0.1002265E-04
  0.9500000E+01  0.2926405E-05  0.2218180E-04  0.5426008E+03 -0.2572849E+01  0.6892141E-06 -0.8857627E-05
  0.9600000E+01  0.2926405E-05  0.1653565E-04  0.5426008E+03  0.8940976E+00  0.6892141E-06 -0.6748002E-05
  0.9700000E+01  0.2926405E-05  0.9046765E-05  0.5426008E+03  0.3783384E+01  0.6892141E-06 -0.3815132E-05
  0.9800000E+01  0.2926405E-05  0.1666921E-06  0.5426008E+03  0.5920374E+01  0.6892141E-06 -0.2343416E-06
  0.9900001E+01  0.2926405E-05 -0.9318903E-05  0.5426008E+03  0.7327726E+01  0.6892141E-06  0.3676885E-05
  0.1000000E+02  0.2926405E-05 -0.1820637E-04  0.5426008E+03  0.8171603E+01  0.6892141E-06  0.7417862E-05
Zone t="DoF    3",I=   100,F=POINT
  0.1000000E+00 -0.1601273E+03 -0.1175238E+04  0.9766763E-06 -0.5928577E-05  0.9183689E+02  0.3421783E+03
  0.2000000E+00 -0.1601273E+03 -0.7276594E+03  0.9766763E-06 -0.1218886E-05  0.9183689E+02  0.2272772E+03
  0.3000000E+00 -0.1601273E+03 -0.1451179E+03  0.9766763E-06  0.3581827E-05  0.9183689E+02  0.7277481E+02
  0.4000000E+00 -0.1601273E+03  0.3975256E+03  0.9766763E-06  0.6000554E-05  0.9183689E+02 -0.8014610E+02
  0.5000000E+00 -0.1601273E+03  0.7613793E+03  0.9766763E-06  0.5285410E-05  0.9183689E+02 -0.1959161E+03
  0.6000000E+00 -0.1601273E+03  0.8874125E+03  0.9766763E-06  0.2709122E-05  0.9183689E+02 -0.2547826E+03
  0.7000000E+00 -0.1601273E+03  0.8017306E+03  0.9766763E-06  0.4998897E-06  0.9183689E+02 -0.2557600E+03
  0.8000000E+00 -0.1601273E+03  0.5860424E+03  0.9766763E-06  0.2037380E-06  0.9183689E+02 -0.2124789E+03
  0.9000000E+00 -0.1601273E+03  0.3330416E+03  0.9766763E-06  0.1649835E-05  0.9183689E+02 -0.1451352E+03
  0.1000000E+01 -0.1601273E+03  0.1101004E+03  0.9766763E-06  0.3220453E-05  0.9183689E+02 -0.7272684E+02
  0.1100000E+01 -0.1601273E+03 -0.5429479E+02  0.9766763E-06  0.3171362E-05  0.9183689E+02 -0.8538304E+01
  0.1200000E+01 -0.1601273E+03 -0.1617962E+03  0.9766763E-06  0.9980978E-06  0.9183689E+02  0.4053939E+02
  0.1300000E+01 -0.1601273E+03 -0.2251479E+03  0.9766763E-06 -0.2164667E-05  0.9183689E+02  0.7228617E+02
  0.1400000E+01 -0.1601273E+03 -0.2531638E+03  0.9766763E-06 -0.4395232E-05  0.9183689E+02  0.8709293E+02
  0.1500000E+01 -0.1601273E+03 -0.2474918E+03  0.9766763E-06 -0.4444915E-05  0.9183689E+02  0.8687141E+02
  0.1600000E+01 -0.1601273E+03 -0.2091205E+03  0.9766763E-06 -0.2712143E-05  0.9183689E+02  0.7492854E+02
  0.1700000E+01 -0.1601273E+03 -0.1462912E+03  0.9766763E-06 -0.9908316E-06  0.9183689E+02  0.5593642E+02
  0.1800000E+01 -0.1601273E+03 -0.7611651E+02  0.9766763E-06 -0.1153326E-05  0.9183689E+02  0.3521815E+02
  0.1900000E+01 -0.1601273E+03 -0.1823193E+02  0.9766763E-06 -0.3717207E-05  0.9183689E+02  0.1734880E+02
  0.2000000E+01 -0.1601273E+03  0.1477331E+02  0.9766763E-06 -0.7347530E-05  0.9183689E+02  0.4818923E+01
  0.2100000E+01 -0.1601273E+03  0.2310043E+02  0.9766763E-06 -0.9681615E-05  0.9183689E+02 -0.2374801E+01
  0.2200000E+01 -0.1601273E+03  0.1766216E+02  0.9766763E-06 -0.8911498E-05  0.9183689E+02 -0.5937200E+01
  0.2300000E+01 -0.1601273E+03  0.1189521E+02  0.9766763E-06 -0.5007506E-05  0.9183689E+02 -0.7816346E+01
  0.2400000E+01 -0.1601273E+03  0.1329537E+02  0.9766763E-06  0.2824191E-06  0.9183689E+02 -0.9035770E+01
  0.2500000E+01 -0.1601273E+03  0.2023977E+02  0.9766763E-06  0.4647420E-05  0.9183689E+02 -0.9498866E+01
  0.2600000E+01 -0.1601273E+03  0.2555000E+02  0.9766763E-06  0.6763002E-05  0.9183689E+02 -0.8711769E+01
  0.2700000E+01 -0.1601273E+03  0.2345148E+02  0.9766763E-06  0.7061294E-05  0.9183689E+02 -0.6721845E+01
  0.2800000E+01 -0.1601273E+03  0.1454904E+02  0.9766763E-06  0.7181309E-05  0.9183689E+02 -0.4482459E+01
  0.2900000E+01 -0.1601273E+03  0.5362270E+01  0.9766763E-06  0.8524306E-05  0.9183689E+02 -0.3355251E+01
  0.3000000E+01 -0.1601273E+03  0.3198627E+01  0.9766763E-06  0.1099922E-04  0.9183689E+02 -0.4154677E+01
  0.3100000E+01 -0.1601273E+03  0.1049056E+02  0.9766763E-06  0.1291425E-04  0.9183689E+02 -0.6496601E+01
  0.3200000E+01 -0.1601273E+03  0.2287005E+02  0.9766763E-06  0.1213857E-04  0.9183689E+02 -0.8980995E+01
  0.3300000E+01 -0.1601273E+03  0.3228069E+02  0.9766763E-06  0.7721317E-05  0.9183689E+02 -0.1010519E+02
  0.3400000E+01 -0.1601273E+03  0.3268216E+02  0.9766763E-06  0.7921092E-06  0.9183689E+02 -0.9252258E+01
  0.3500000E+01 -0.1601273E+03  0.2411794E+02  0.9766763E-06 -0.5949494E-05  0.9183689E+02 -0.7041699E+01
  0.3600000E+01 -0.1601273E+03  0.1229110E+02  0.9766763E-06 -0.9854550E-05  0.9183689E+02 -0.4801115E+01
  0.3700000E+01 -0.1601273E+03  0.4163001E+01  0.9766763E-06 -0.9957767E-05  0.9183689E+02 -0.3562585E+01
  0.3800000E+01 -0.1601273E+03  0.2939114E+01  0.9766763E-06 -0.7499214E-05  0.9183689E+02 -0.3328501E+01
  0.3900000E+01 -0.1601273E+03  0.6084851E+01  0.9766763E-06 -0.4979591E-05  0.9183689E+02 -0.3138343E+01
  0.4000000E+01 -0.1601273E+03  0.7654275E+01  0.9766763E-06 -0.4416633E-05  0.9183689E+02 -0.1869409E+01
  0.4100000E+01 -0.1601273E+03  0.3024311E+01  0.9766763E-06 -0.6020009E-05  0.9183689E+02  0.8391954E+00
  0.4200000E+01 -0.1601273E+03 -0.7539327E+01  0.9766763E-06 -0.8191320E-05  0.9183689E+02  0.4233904E+01
  0.4300000E+01 -0.1601273E+03 -0.1905687E+02  0.9766763E-06 -0.8806314E-05  0.9183689E+02  0.6930393E+01
  0.4400000E+01 -0.1601273E+03 -0.2549932E+02  0.9766763E-06 -0.6829264E-05  0.9183689E+02  0.7878747E+01
  0.4500000E+01 -0.1601273E+03 -0.2414065E+02  0.9766763E-06 -0.3089222E-05  0.9183689E+02  0.7096468E+01
  0.4600000E+01 -0.1601273E+03 -0.1739835E+02  0.9766763E-06  0.3321466E-06  0.9183689E+02  0.5631023E+01
  0.4700000E+01 -0.1601273E+03 -0.1088973E+02  0.9766763E-06  0.1641590E-05  0.9183689E+02  0.4779297E+01
  0.4800000E+01 -0.1601273E+03 -0.9238673E+01  0.9766763E-06  0.6733206E-06  0.9183689E+02  0.5137553E+01
  0.4900000E+01 -0.1601273E+03 -0.1276018E+02  0.9766763E-06 -0.9566907E-06  0.9183689E+02  0.6179099E+01
  0.5000000E+01 -0.1601273E+03 -0.1741716E+02  0.9766763E-06 -0.1003928E-05  0.9183689E+02  0.6666740E+01
  0.5100000E+01 -0.1601273E+03 -0.1798572E+02  0.9766763E-06  0.1769556E-05  0.9183689E+02  0.5594572E+01
  0.5200000E+01 -0.1601273E+03 -0.1202275E+02  0.9766763E-06  0.6655844E-05  0.9183689E+02  0.2966321E+01
  0.5300000E+01 -0.1601273E+03 -0.1707024E+01  0.9766763E-06  0.1143624E-04  0.9183689E+02 -0.1625949E+00
  0.5400000E+01 -0.1601273E+03  0.7744025E+01  0.9766763E-06  0.1387966E-04  0.9183689E+02 -0.2411312E+01
  0.5500000E+01 -0.1601273E+03  0.1184821E+02  0.9766763E-06  0.1322642E-04  0.9183689E+02 -0.3038875E+01
  0.5600000E+01 -0.1601273E+03  0.1001676E+02  0.9766763E-06  0.1059377E-04  0.9183689E+02 -0.2444862E+01
  0.5700000E+01 -0.1601273E+03  0.5801640E+01  0.9766763E-06  0.8022762E-05  0.9183689E+02 -0.1840237E+01
  0.5800000E+01 -0.1601273E+03  0.4120145E+01  0.9766763E-06  0.6875900E-05  0.9183689E+02 -0.2330838E+01
  0.5900000E+01 -0.1601273E+03  0.7547256E+01  0.9766763E-06  0.6771312E-05  0.9183689E+02 -0.4081666E+01
  0.6000000E+01 -0.1601273E+03  0.1441638E+02  0.9766763E-06  0.5854673E-05  0.9183689E+02 -0.6174347E+01
  0.6100000E+01 -0.1601273E+03  0.2008292E+02  0.9766763E-06  0.2236096E-05  0.9183689E+02 -0.7262331E+01
  0.6200000E+01 -0.1601273E+03  0.2037089E+02  0.9766763E-06 -0.4440992E-05  0.9183689E+02 -0.6547728E+01
  0.6300000E+01 -0.1601273E+03  0.1464434E+02  0.9766763E-06 -0.1245196E-04  0.9183689E+02 -0.4369721E+01
  0.6400000E+01 -0.1601273E+03  0.6261601E+01  0.9766763E-06 -0.1890221E-04  0.9183689E+02 -0.1974990E+01
  0.6500000E+01 -0.1601273E+03  0.1179061E+00  0.9766763E-06 -0.2149135E-04  0.9183689E+02 -0.6354541E+00
  0.6600000E+01 -0.1601273E+03 -0.8835719E+00  0.9766763E-06 -0.1990392E-04  0.9183689E+02 -0.7524567E+00
  0.6700000E+01 -0.1601273E+03  0.2155720E+01  0.9766763E-06 -0.1585276E-04  0.9183689E+02 -0.1595647E+01
  0.6800000E+01 -0.1601273E+03  0.5077805E+01  0.9766763E-06 -0.1175672E-04  0.9183689E+02 -0.1864713E+01
  0.6900000E+01 -0.1601273E+03  0.3843046E+01  0.9766763E-06 -0.9007823E-05  0.9183689E+02 -0.6666565E+00
  0.7000000E+01 -0.1601273E+03 -0.2426571E+01  0.9766763E-06 -0.7077056E-05  0.9183689E+02  0.1802927E+01
  0.7100000E+01 -0.1601273E+03 -0.1075255E+02  0.9766763E-06 -0.4101909E-05  0.9183689E+02  0.4368038E+01
  0.7200000E+01 -0.1601273E+03 -0.1643942E+02  0.9766763E-06  0.1475011E-05  0.9183689E+02  0.5694121E+01
  0.7300000E+01 -0.1601273E+03 -0.1645577E+02  0.9766763E-06  0.9420018E-05  0.9183689E+02  0.5230078E+01
  0.7400000E+01 -0.1601273E+03 -0.1157801E+02  0.9766763E-06  0.1748892E-04  0.9183689E+02  0.3588760E+01
  0.7500000E+01 -0.1601273E+03 -0.5757475E+01  0.9766763E-06  0.2268884E-04  0.9183689E+02  0.2093396E+01
  0.7600000E+01 -0.1601273E+03 -0.3201761E+01  0.9766763E-06  0.2316736E-04  0.9183689E+02  0.1817401E+01
  0.7700000E+01 -0.1601273E+03 -0.5324668E+01  0.9766763E-06  0.1940233E-04  0.9183689E+02  0.2813301E+01
  0.7800000E+01 -0.1601273E+03 -0.9782074E+01  0.9766763E-06  0.1383776E-04  0.9183689E+02  0.4086970E+01
  0.7900000E+01 -0.1601273E+03 -0.1226752E+02  0.9766763E-06  0.9203438E-05  0.9183689E+02  0.4334848E+01
  0.8000000E+01 -0.1601273E+03 -0.9731900E+01  0.9766763E-06  0.6692146E-05  0.9183689E+02  0.2910923E+01
  0.8100000E+01 -0.1601273E+03 -0.2651454E+01  0.9766763E-06  0.5280439E-05  0.9183689E+02  0.3193582E+00