 VARIABLES="Time (s)"
"IRF    1"
"IRF    2"
"IRF    3"
Zone t="beta  0.0000000E+00",I=   199,F=POINT
 -0.9800000E+01 -0.1716257E+03  0.3507228E+02  0.6664938E+02
 -0.9700000E+01 -0.1663211E+03  0.2914988E+01  0.6259055E+02
 -0.9600000E+01 -0.2087603E+03 -0.3200300E+02  0.7529832E+02
 -0.9500000E+01 -0.2778695E+03 -0.6736201E+02  0.9916340E+02
 -0.9400001E+01 -0.3239099E+03 -0.1001931E+03  0.1172373E+03
 -0.9300000E+01 -0.3045995E+03 -0.1275485E+03  0.1133310E+03
 -0.9200000E+01 -0.2162434E+03 -0.1471902E+03  0.8371095E+02
 -0.9100000E+01 -0.9711603E+02 -0.1580441E+03  0.4000782E+02
 -0.9000000E+01 -0.5133339E+00 -0.1602126E+03  0.1229328E+01
 -0.8900001E+01  0.4274872E+02 -0.1545746E+03 -0.1934007E+02
 -0.8800000E+01  0.4504108E+02 -0.1421899E+03 -0.2297608E+02
 -0.8700000E+01  0.5059350E+02 -0.1237794E+03 -0.2374309E+02
 -0.8600000E+01  0.1006473E+03 -0.9954726E+02 -0.3748732E+02
 -0.8500000E+01  0.2007193E+03 -0.6941341E+02 -0.6956321E+02
 -0.8400001E+01  0.3142207E+03 -0.3354829E+02 -0.1101837E+03
 -0.8300000E+01  0.3873055E+03  0.7055051E+01 -0.1407672E+03
 -0.8200000E+01  0.3867477E+03  0.5027085E+02 -0.1466954E+03
 -0.8100000E+01  0.3231243E+03  0.9296877E+02 -0.1273394E+03
 -0.8000000E+01  0.2421579E+03  0.1315801E+03 -0.9613943E+02
 -0.7900000E+01  0.1907038E+03  0.1628698E+03 -0.7077213E+02
 -0.7800000E+01  0.1824122E+03  0.1846296E+03 -0.6052358E+02
 -0.7700000E+01  0.1885081E+03  0.1959726E+03 -0.5998568E+02
 -0.7600000E+01  0.1605246E+03  0.1971564E+03 -0.5357904E+02
 -0.7500000E+01  0.6825780E+02  0.1890272E+03 -0.2757832E+02
 -0.7400000E+01 -0.7533956E+02  0.1723916E+03  0.1912655E+02
 -0.7300000E+01 -0.2208697E+03  0.1476406E+03  0.7330093E+02
 -0.7200000E+01 -0.3161965E+03  0.1148163E+03  0.1159501E+03
 -0.7100000E+01 -0.3422773E+03  0.7409903E+02  0.1349879E+03
 -0.7000000E+01 -0.3246373E+03  0.2644562E+02  0.1328868E+03
 -0.6900000E+01 -0.3119509E+03 -0.2597334E+02  0.1238699E+03
 -0.6800000E+01 -0.3375737E+03 -0.7978890E+02  0.1227731E+03
 -0.6700000E+01 -0.3928146E+03 -0.1309631E+03  0.1337398E+03
 -0.6600000E+01 -0.4321541E+03 -0.1756068E+03  0.1469645E+03
 -0.6500000E+01 -0.4068282E+03 -0.2107401E+03  0.1458071E+03
 -0.6400000E+01 -0.3019575E+03 -0.2346655E+03  0.1190789E+03
 -0.6300000E+01 -0.1493124E+03 -0.2468379E+03  0.6955077E+02
 -0.6200000E+01 -0.5851552E+01 -0.2473552E+03  0.1254064E+02
 -0.6100000E+01  0.8639975E+02 -0.2363868E+03 -0.3436380E+02
 -0.6000000E+01  0.1291568E+03 -0.2138592E+03 -0.6294279E+02
 -0.5900000E+01  0.1636665E+03 -0.1795779E+03 -0.7895157E+02
 -0.5800000E+01  0.2362095E+03 -0.1337133E+03 -0.9644292E+02
 -0.5700000E+01  0.3591333E+03 -0.7739149E+02 -0.1260998E+03
 -0.5600000E+01  0.4970822E+03 -0.1307120E+02 -0.1661891E+03
 -0.5500000E+01  0.5896201E+03  0.5550232E+02 -0.2027807E+03
 -0.5400000E+01  0.5940045E+03  0.1237821E+03 -0.2190493E+03
 -0.5300000E+01  0.5162320E+03  0.1871556E+03 -0.2068608E+03
 -0.5200000E+01  0.4063745E+03  0.2416473E+03 -0.1721686E+03
 -0.5100000E+01  0.3209810E+03  0.2843359E+03 -0.1303861E+03
 -0.5000000E+01  0.2803111E+03  0.3133760E+03 -0.9520959E+02
 -0.4900000E+01  0.2531084E+03  0.3276971E+03 -0.6918346E+02
 -0.4800000E+01  0.1814863E+03  0.3265845E+03 -0.4290746E+02
 -0.4700000E+01  0.2815708E+02  0.3093802E+03 -0.3361181E+01
 -0.4600000E+01 -0.1896089E+03  0.2754930E+03  0.5491998E+02
 -0.4500000E+01 -0.4062736E+03  0.2247419E+03  0.1241924E+03
 -0.4400000E+01 -0.5516700E+03  0.1579081E+03  0.1875992E+03
 -0.4300000E+01 -0.6002068E+03  0.7725063E+02  0.2299757E+03
 -0.4200000E+01 -0.5880733E+03 -0.1328062E+02  0.2473547E+03
 -0.4100000E+01 -0.5836622E+03 -0.1082983E+03  0.2481566E+03
 -0.4000000E+01 -0.6318574E+03 -0.2016629E+03  0.2452953E+03
 -0.3900000E+01 -0.7141846E+03 -0.2873925E+03  0.2452758E+03
 -0.3800000E+01 -0.7570403E+03 -0.3604504E+03  0.2425991E+03
 -0.3700000E+01 -0.6848265E+03 -0.4171167E+03  0.2237865E+03
 -0.3600000E+01 -0.4797366E+03 -0.4548477E+03  0.1779980E+03
 -0.3500000E+01 -0.2020220E+03 -0.4717631E+03  0.1061340E+03
 -0.3400000E+01  0.4806120E+02 -0.4661222E+03  0.2138162E+02
 -0.3300000E+01  0.2015830E+03 -0.4361475E+03 -0.5934439E+02
 -0.3200000E+01  0.2726476E+03 -0.3803781E+03 -0.1265778E+03
 -0.3100000E+01  0.3484478E+03 -0.2984430E+03 -0.1834268E+03
 -0.3000000E+01  0.5201276E+03 -0.1918922E+03 -0.2405481E+03
 -0.2900000E+01  0.8032545E+03 -0.6465608E+02 -0.3047654E+03
 -0.2800000E+01  0.1109560E+04  0.7712294E+02 -0.3703703E+03
 -0.2700000E+01  0.1297890E+04  0.2258317E+03 -0.4204182E+03
 -0.2600000E+01  0.1273501E+04  0.3733889E+03 -0.4376838E+03
 -0.2500000E+01  0.1063707E+04  0.5120753E+03 -0.4170471E+03
 -0.2400000E+01  0.8079163E+03  0.6348922E+03 -0.3692540E+03
 -0.2300000E+01  0.6590237E+03  0.7353972E+03 -0.3121773E+03
 -0.2200000E+01  0.6616417E+03  0.8071695E+03 -0.2556066E+03
 -0.2100000E+01  0.6993548E+03  0.8431881E+03 -0.1916622E+03
 -0.2000000E+01  0.5627974E+03  0.8353265E+03 -0.9974925E+02
 -0.1900000E+01  0.1047050E+03  0.7741968E+03  0.3593214E+02
 -0.1800000E+01 -0.6241810E+03  0.6495752E+03  0.2092101E+03
 -0.1700000E+01 -0.1367415E+04  0.4518177E+03  0.3900649E+03
 -0.1600000E+01 -0.1813862E+04  0.1746853E+03  0.5431484E+03
 -0.1500000E+01 -0.1823964E+04 -0.1802939E+03  0.6557856E+03
 -0.1400000E+01 -0.1575894E+04 -0.5985413E+03  0.7538154E+03
 -0.1300000E+01 -0.1504609E+04 -0.1047806E+04  0.8876180E+03
 -0.1200000E+01 -0.2030387E+04 -0.1476582E+04  0.1089293E+04
 -0.1100000E+01 -0.3220301E+04 -0.1817844E+04  0.1324358E+04
 -0.1000000E+01 -0.4599563E+04 -0.1999247E+04  0.1472182E+04
 -0.9000000E+00 -0.5270718E+04 -0.1958677E+04  0.1358790E+04
 -0.8000000E+00 -0.4329054E+04 -0.1661673E+04  0.8371071E+03
 -0.7000000E+00 -0.1378230E+04 -0.1115550E+04 -0.1211980E+03
 -0.6000000E+00  0.3135618E+04 -0.3751375E+03 -0.1371920E+04
 -0.5000000E+00  0.7979255E+04  0.4629357E+03 -0.2618591E+04
 -0.4000000E+00  0.1158521E+05  0.1277087E+04 -0.3506902E+04
 -0.3000000E+00  0.1269541E+05  0.1944808E+04 -0.3754710E+04
 -0.2000000E+00  0.1088244E+05  0.2367536E+04 -0.3259010E+04
 -0.1000000E+00  0.6699025E+04  0.2489739E+04 -0.2131921E+04
  0.0000000E+00  0.1402139E+04  0.2307521E+04 -0.6526464E+03
  0.1000000E+00 -0.3585895E+04  0.1865349E+04  0.8375164E+03
  0.2000000E+00 -0.7202328E+04  0.1242998E+04  0.2046655E+04
  0.3000000E+00 -0.9019185E+04  0.5371987E+03  0.2803936E+04
  0.4000000E+00 -0.9193694E+04 -0.1569132E+03  0.3071852E+04
  0.5000000E+00 -0.8196424E+04 -0.7604329E+03  0.2911065E+04
  0.6000000E+00 -0.6511847E+04 -0.1219252E+04  0.2428794E+04
  0.7000000E+00 -0.4473274E+04 -0.1506463E+04  0.1739662E+04
  0.8000000E+00 -0.2274218E+04 -0.1619933E+04  0.9503819E+03
  0.9000000E+00 -0.7882450E+02 -0.1576949E+04  0.1605517E+03
  0.1000000E+01  0.1892352E+04 -0.1407698E+04 -0.5365797E+03
  0.1100000E+01  0.3378902E+04 -0.1148831E+04 -0.1063647E+04
  0.1200000E+01  0.4184507E+04 -0.8379274E+03 -0.1376227E+04
  0.1300000E+01  0.4283187E+04 -0.5091996E+03 -0.1475086E+04
  0.1400000E+01  0.3841947E+04 -0.1907385E+03 -0.1402516E+04
  0.1500000E+01  0.3136507E+04  0.9672294E+02 -0.1221988E+04
  0.1600000E+01  0.2413543E+04  0.3396855E+03 -0.9918911E+03
  0.1700000E+01  0.1788011E+04  0.5307952E+03 -0.7480096E+03
  0.1800000E+01  0.1236137E+04  0.6673329E+03 -0.5031165E+03
  0.1900000E+01  0.6761566E+03  0.7497823E+03 -0.2603403E+03
  0.2000000E+01  0.7074400E+02  0.7808224E+03 -0.2828736E+02
  0.2100000E+01 -0.5233208E+03  0.7648093E+03  0.1737706E+03
  0.2200000E+01 -0.9887045E+03  0.7075837E+03  0.3237591E+03
  0.2300000E+01 -0.1232616E+04  0.6163613E+03  0.4106275E+03
  0.2400000E+01 -0.1256450E+04  0.4994659E+03  0.4426710E+03
  0.2500000E+01 -0.1157931E+04  0.3658485E+03  0.4432667E+03
  0.2600000E+01 -0.1065225E+04  0.2244311E+03  0.4365389E+03
  0.2700000E+01 -0.1051995E+04  0.8345680E+02  0.4330078E+03
  0.2800000E+01 -0.1094461E+04 -0.5000919E+02  0.4253436E+03
  0.2900000E+01 -0.1099258E+04 -0.1703139E+03  0.3969281E+03
  0.3000000E+01 -0.9792496E+03 -0.2731821E+03  0.3366985E+03
  0.3100000E+01 -0.7211754E+03 -0.3555065E+03  0.2493629E+03
  0.3200000E+01 -0.3971628E+03 -0.4150877E+03  0.1537191E+03
  0.3300000E+01 -0.1142854E+03 -0.4504773E+03  0.7060313E+02
  0.3400000E+01  0.5906432E+02 -0.4609937E+03  0.9520443E+01
  0.3500000E+01  0.1360933E+03 -0.4469192E+03 -0.3622800E+02
  0.3600000E+01  0.1940330E+03 -0.4097559E+03 -0.8248399E+02
  0.3700000E+01  0.3110176E+03 -0.3523987E+03 -0.1406143E+03
  0.3800000E+01  0.5046303E+03 -0.2790604E+03 -0.2074326E+03
  0.3900000E+01  0.7167401E+03 -0.1949084E+03 -0.2660894E+03
  0.4000000E+01  0.8544278E+03 -0.1054816E+03 -0.2972679E+03
  0.4100000E+01  0.8560820E+03 -0.1606220E+02 -0.2925137E+03
  0.4200000E+01  0.7343477E+03  0.6878989E+02 -0.2600171E+03
  0.4300000E+01  0.5656339E+03  0.1454163E+03 -0.2187143E+03
  0.4400000E+01  0.4350830E+03  0.2109717E+03 -0.1850771E+03
  0.4500000E+01  0.3777275E+03  0.2631929E+03 -0.1621966E+03
  0.4600000E+01  0.3582028E+03  0.3002304E+03 -0.1390143E+03
  0.4700000E+01  0.3024520E+03  0.3206647E+03 -0.1000959E+03
  0.4800000E+01  0.1570365E+03  0.3237201E+03 -0.3868989E+02
  0.4900000E+01 -0.6765520E+02  0.3095532E+03  0.3653146E+02
  0.5000000E+01 -0.3013826E+03  0.2794391E+03  0.1059993E+03
  0.5100000E+01 -0.4614991E+03  0.2357366E+03  0.1517780E+03
  0.5200000E+01 -0.5089236E+03  0.1816083E+03  0.1690601E+03
  0.5300000E+01 -0.4722299E+03  0.1206053E+03  0.1683616E+03
  0.5400000E+01 -0.4232573E+03  0.5628042E+02  0.1669198E+03
  0.5500000E+01 -0.4229450E+03 -0.8057025E+01  0.1756208E+03
  0.5600000E+01 -0.4770382E+03 -0.6940170E+02  0.1909331E+03
  0.5700000E+01 -0.5334542E+03 -0.1250159E+03  0.1976743E+03
  0.5800000E+01 -0.5222651E+03 -0.1723974E+03  0.1805149E+03
  0.5900000E+01 -0.4086294E+03 -0.2093513E+03  0.1358454E+03
  0.6000000E+01 -0.2200723E+03 -0.2341648E+03  0.7536372E+02
  0.6100000E+01 -0.2881932E+02 -0.2458252E+03  0.1878041E+02
  0.6200000E+01  0.9748945E+02 -0.2441677E+03 -0.1911833E+02
  0.6300000E+01  0.1407513E+03 -0.2298849E+03 -0.3774055E+02
  0.6400000E+01  0.1409775E+03 -0.2043786E+03 -0.4970863E+02
  0.6500000E+01  0.1630303E+03 -0.1695312E+03 -0.7041594E+02
  0.6600000E+01  0.2464420E+03 -0.1274760E+03 -0.1057792E+03
  0.6700000E+01  0.3748271E+03 -0.8045248E+02 -0.1470594E+03
  0.6800000E+01  0.4867303E+03 -0.3075810E+02 -0.1765108E+03
  0.6900000E+01  0.5194399E+03  0.1922732E+02 -0.1797565E+03
  0.7000000E+01  0.4537658E+03  0.6703349E+02 -0.1559745E+03
  0.7100000E+01  0.3275022E+03  0.1101651E+03 -0.1185513E+03
  0.7200000E+01  0.2083622E+03  0.1462767E+03 -0.8576114E+02
  0.7300000E+01  0.1464592E+03  0.1734170E+03 -0.6820099E+02
  0.7400000E+01  0.1406548E+03  0.1902705E+03 -0.6197548E+02
  0.7500000E+01  0.1427300E+03  0.1963133E+03 -0.5249968E+02
  0.7600000E+01  0.9560073E+02  0.1918151E+03 -0.2607500E+02
  0.7700000E+01 -0.2257922E+02  0.1776925E+03  0.1917686E+02
  0.7800000E+01 -0.1803162E+03  0.1552782E+03  0.7091885E+02
  0.7900000E+01 -0.3135004E+03  0.1260848E+03  0.1105116E+03
  0.8000000E+01 -0.3695540E+03  0.9167542E+02  0.1255339E+03
  0.8100000E+01 -0.3430920E+03  0.5364418E+02  0.1179583E+03
  0.8200000E+01 -0.2776737E+03  0.1370932E+02  0.1021427E+03
  0.8300000E+01 -0.2329474E+03 -0.2621164E+02  0.9414671E+02
  0.8400001E+01 -0.2413036E+03 -0.6399984E+02  0.1000786E+03
  0.8500000E+01 -0.2853447E+03 -0.9749709E+02  0.1118577E+03
  0.8600000E+01 -0.3119194E+03 -0.1247676E+03  0.1133682E+03
  0.8700000E+01 -0.2721680E+03 -0.1443888E+03  0.9256078E+02
  0.8800000E+01 -0.1582837E+03 -0.1556256E+03  0.5073402E+02
  0.8900001E+01 -0.1066239E+02 -0.1584307E+03  0.2338528E+01
  0.9000000E+01  0.1094221E+03 -0.1532748E+03 -0.3457432E+02
  0.9100000E+01  0.1617003E+03 -0.1408913E+03 -0.5043612E+02
  0.9200000E+01  0.1530958E+03 -0.1220959E+03 -0.5010896E+02
  0.9300000E+01  0.1300095E+03 -0.9773022E+02 -0.4856288E+02
  0.9400001E+01  0.1425897E+03 -0.6878300E+02 -0.5939391E+02
  0.9500000E+01  0.2072501E+03 -0.3655878E+02 -0.8452330E+02
  0.9600000E+01  0.2942516E+03 -0.2773519E+01 -0.1124399E+03
  0.9700000E+01  0.3489871E+03  0.3051148E+02 -0.1262463E+03
  0.9800000E+01  0.3312712E+03  0.6115957E+02 -0.1157158E+03
  0.9900001E+01  0.2442117E+03  0.8729773E+02 -0.8469569E+02
  0.1000000E+02  0.1322204E+03  0.1076195E+03 -0.4860011E+02
