 VARIABLES="Time (s)"
"IRF    1"
"IRF    2"
"IRF    3"
"IRF    4"
"IRF    5"
"IRF    6"
Zone t="beta  0.0000000E+00",I=   199,F=POINT
 -0.9800000E+01 -0.1760823E+03 -0.7672879E-04 -0.9720730E+02 -0.2395499E-03 -0.1254309E+04  0.4318526E-12
 -0.9700000E+01 -0.2158031E+03 -0.9980510E-04 -0.1286522E+03 -0.4674883E-03 -0.1537374E+04  0.4595498E-12
 -0.9600000E+01 -0.2478802E+03 -0.1242573E-03 -0.1639062E+03 -0.6817225E-03 -0.1765986E+04  0.4747339E-12
 -0.9500000E+01 -0.2708711E+03 -0.1495505E-03 -0.2016647E+03 -0.8743798E-03 -0.1929867E+04  0.4767293E-12
 -0.9400001E+01 -0.2836613E+03 -0.1750803E-03 -0.2404949E+03 -0.1037983E-02 -0.2021073E+04  0.4652577E-12
 -0.9300000E+01 -0.2855185E+03 -0.2001913E-03 -0.2788889E+03 -0.1165720E-02 -0.2034382E+04  0.4404512E-12
 -0.9200000E+01 -0.2761280E+03 -0.2241945E-03 -0.3153214E+03 -0.1251659E-02 -0.1967550E+04  0.4028493E-12
 -0.9100000E+01 -0.2556147E+03 -0.2463891E-03 -0.3483124E+03 -0.1290976E-02 -0.1821465E+04  0.3533864E-12
 -0.9000000E+01 -0.2245466E+03 -0.2660860E-03 -0.3764845E+03 -0.1280136E-02 -0.1600170E+04  0.2933622E-12
 -0.8900001E+01 -0.1839240E+03 -0.2826288E-03 -0.3986215E+03 -0.1217036E-02 -0.1310789E+04  0.2244070E-12
 -0.8800000E+01 -0.1351459E+03 -0.2954178E-03 -0.4137199E+03 -0.1101121E-02 -0.9632889E+03  0.1484260E-12
 -0.8700000E+01 -0.7996900E+02 -0.3039301E-03 -0.4210332E+03 -0.9334390E-03 -0.5701826E+03  0.6754913E-13
 -0.8600000E+01 -0.2044282E+02 -0.3077401E-03 -0.4201088E+03 -0.7166649E-03 -0.1460713E+03 -0.1593903E-13
 -0.8500000E+01  0.4116531E+02 -0.3065365E-03 -0.4108114E+03 -0.4550540E-03  0.2928912E+03 -0.9967001E-13
 -0.8400001E+01  0.1024497E+03 -0.3001359E-03 -0.3933371E+03 -0.1543624E-03  0.7295658E+03 -0.1812590E-12
 -0.8300000E+01  0.1609634E+03 -0.2884924E-03 -0.3682142E+03  0.1782975E-03  0.1146516E+04 -0.2583854E-12
 -0.8200000E+01  0.2143088E+03 -0.2717042E-03 -0.3362879E+03  0.5346279E-03  0.1526660E+04 -0.3288576E-12
 -0.8100000E+01  0.2602345E+03 -0.2500147E-03 -0.2986983E+03  0.9053707E-03  0.1853953E+04 -0.3906831E-12
 -0.8000000E+01  0.2967288E+03 -0.2238090E-03 -0.2568385E+03  0.1280583E-02  0.2114062E+04 -0.4421302E-12
 -0.7900000E+01  0.3221015E+03 -0.1936066E-03 -0.2123099E+03  0.1649898E-02  0.2294941E+04 -0.4817786E-12
 -0.7800000E+01  0.3350604E+03 -0.1600490E-03 -0.1668609E+03  0.2002843E-02  0.2387377E+04 -0.5085624E-12
 -0.7700000E+01  0.3347702E+03 -0.1238827E-03 -0.1223236E+03  0.2329161E-02  0.2385419E+04 -0.5218037E-12
 -0.7600000E+01  0.3208966E+03 -0.8593976E-04 -0.8054195E+02  0.2619120E-02  0.2286680E+04 -0.5212286E-12
 -0.7500000E+01  0.2936333E+03 -0.4711513E-04 -0.4330069E+02  0.2863816E-02  0.2092534E+04 -0.5069769E-12
 -0.7400000E+01  0.2537067E+03 -0.8339755E-05 -0.1225147E+02  0.3055471E-02  0.1808154E+04 -0.4795930E-12
 -0.7300000E+01  0.2023611E+03  0.2944514E-04  0.1115431E+02  0.3187690E-02  0.1442401E+04 -0.4400103E-12
 -0.7200000E+01  0.1413244E+03  0.6531602E-04  0.2572995E+02  0.3255681E-02  0.1007582E+04 -0.3895162E-12
 -0.7100000E+01  0.7275230E+02  0.9839549E-04  0.3060722E+02  0.3256429E-02  0.5190535E+03 -0.3297137E-12
 -0.7000000E+01 -0.8419455E+00  0.1278769E-03  0.2527937E+02  0.3188832E-02 -0.5281100E+01 -0.2624685E-12
 -0.6900000E+01 -0.7667911E+02  0.1530506E-03  0.9631710E+01  0.3053759E-02 -0.5456198E+03 -0.1898487E-12
 -0.6800000E+01 -0.1518120E+03  0.1733245E-03 -0.1604242E+02  0.2854065E-02 -0.1080969E+04 -0.1140607E-12
 -0.6700000E+01 -0.2232367E+03  0.1882428E-03 -0.5104050E+02  0.2594543E-02 -0.1589923E+04 -0.3738046E-13
 -0.6600000E+01 -0.2880077E+03  0.1974997E-03 -0.9426616E+02  0.2281806E-02 -0.2051498E+04  0.3791903E-13
 -0.6500000E+01 -0.3433527E+03  0.2009486E-03 -0.1442612E+03  0.1924126E-02 -0.2445936E+04  0.1096368E-12
 -0.6400000E+01 -0.3867859E+03  0.1986072E-03 -0.1992513E+03  0.1531201E-02 -0.2755528E+04  0.1757116E-12
 -0.6300000E+01 -0.4162122E+03  0.1906567E-03 -0.2572049E+03  0.1113889E-02 -0.2965336E+04  0.2342848E-12
 -0.6200000E+01 -0.4300199E+03  0.1774358E-03 -0.3159063E+03  0.6839014E-03 -0.3063879E+04  0.2837560E-12
 -0.6100000E+01 -0.4271567E+03  0.1594304E-03 -0.3730344E+03  0.2534585E-03 -0.3043649E+04  0.3228295E-12
 -0.6000000E+01 -0.4071878E+03  0.1372583E-03 -0.4262526E+03 -0.1650684E-03 -0.2901546E+04  0.3505523E-12
 -0.5900000E+01 -0.3703304E+03  0.1116499E-03 -0.4732974E+03 -0.5595349E-03 -0.2639111E+04  0.3663388E-12
 -0.5800000E+01 -0.3174677E+03  0.8342530E-04 -0.5120714E+03 -0.9183863E-03 -0.2262629E+04  0.3699866E-12
 -0.5700000E+01 -0.2501340E+03  0.5346884E-04 -0.5407300E+03 -0.1231015E-02 -0.1783023E+04  0.3616764E-12
 -0.5600000E+01 -0.1704771E+03  0.2270163E-04 -0.5577619E+03 -0.1488089E-02 -0.1215591E+04  0.3419636E-12
 -0.5500000E+01 -0.8119727E+02 -0.7946411E-05 -0.5620610E+03 -0.1681850E-02 -0.5795698E+03  0.3117557E-12
 -0.5400000E+01  0.1453904E+02 -0.3756597E-04 -0.5529835E+03 -0.1806364E-02  0.1024902E+03  0.2722781E-12
 -0.5300000E+01  0.1132038E+03 -0.6529490E-04 -0.5303899E+03 -0.1857714E-02  0.8054524E+03  0.2250331E-12
 -0.5200000E+01  0.2110285E+03 -0.9034506E-04 -0.4946702E+03 -0.1834146E-02  0.1502475E+04  0.1717477E-12
 -0.5100000E+01  0.3041407E+03 -0.1120250E-03 -0.4467485E+03 -0.1736132E-02  0.2165963E+04  0.1143153E-12
 -0.5000000E+01  0.3887026E+03 -0.1297599E-03 -0.3880684E+03 -0.1566381E-02  0.2768579E+04  0.5473432E-13
 -0.4900000E+01  0.4610618E+03 -0.1431080E-03 -0.3205582E+03 -0.1329773E-02  0.3284298E+04 -0.4958463E-14
 -0.4800000E+01  0.5178925E+03 -0.1517719E-03 -0.2465774E+03 -0.1033227E-02  0.3689417E+04 -0.6275395E-13
 -0.4700000E+01  0.5563318E+03 -0.1556053E-03 -0.1688401E+03 -0.6855136E-03  0.3963539E+04 -0.1167352E-12
 -0.4600000E+01  0.5741041E+03 -0.1546149E-03 -0.9033065E+02 -0.2969881E-03  0.4090444E+04 -0.1651391E-12
 -0.4500000E+01  0.5696282E+03 -0.1489572E-03 -0.1420021E+02  0.1206917E-03  0.4058855E+04 -0.2064112E-12
 -0.4400000E+01  0.5421006E+03 -0.1389308E-03  0.5634959E+02  0.5549277E-03  0.3863044E+04 -0.2392565E-12
 -0.4300000E+01  0.4915567E+03 -0.1249642E-03  0.1181820E+03  0.9925480E-03  0.3503250E+04 -0.2626777E-12
 -0.4200000E+01  0.4189006E+03 -0.1075980E-03  0.1683477E+03  0.1420204E-02  0.2985904E+04 -0.2760073E-12
 -0.4100000E+01  0.3259064E+03 -0.8746726E-04  0.2042069E+03  0.1824771E-02  0.2323633E+04 -0.2789254E-12
 -0.4000000E+01  0.2151894E+03 -0.6527801E-04  0.2235422E+03  0.2193742E-02  0.1535060E+04 -0.2714694E-12
 -0.3900000E+01  0.9014360E+02 -0.4178274E-04  0.2246610E+03  0.2515611E-02  0.6443583E+03 -0.2540305E-12
 -0.3800000E+01 -0.4514739E+02 -0.1775535E-04  0.2064866E+03  0.2780218E-02 -0.3193932E+03 -0.2273392E-12
 -0.3700000E+01 -0.1860272E+03  0.6033785E-05  0.1686294E+03  0.2979060E-02 -0.1323031E+04 -0.1924402E-12
 -0.3600000E+01 -0.3274106E+03  0.2884339E-04  0.1114363E+03  0.3105543E-02 -0.2330333E+04 -0.1506574E-12
 -0.3500000E+01 -0.4639419E+03  0.4998376E-04  0.3601960E+02  0.3155186E-02 -0.3303146E+04 -0.1035496E-12
 -0.3400000E+01 -0.5901698E+03  0.6883797E-04 -0.5574328E+02  0.3125750E-02 -0.4202645E+04 -0.5286014E-13
 -0.3300000E+01 -0.7007344E+03  0.8487960E-04 -0.1612335E+03  0.3017301E-02 -0.4990645E+04 -0.4596410E-15
 -0.3200000E+01 -0.7905521E+03  0.9768710E-04 -0.2771413E+03  0.2832210E-02 -0.5630923E+04  0.5171469E-13
 -0.3100000E+01 -0.8549985E+03  0.1069541E-03 -0.3995416E+03  0.2575061E-02 -0.6090543E+04  0.1017212E-12
 -0.3000000E+01 -0.8900836E+03  0.1124956E-03 -0.5239937E+03  0.2252511E-02 -0.6341066E+04  0.1476769E-12
 -0.2900000E+01 -0.8926065E+03  0.1142499E-03 -0.6456602E+03  0.1873079E-02 -0.6359691E+04  0.1878173E-12
 -0.2800000E+01 -0.8602949E+03  0.1122758E-03 -0.7594504E+03  0.1446866E-02 -0.6130213E+04  0.2205535E-12
 -0.2700000E+01 -0.7919094E+03  0.1067461E-03 -0.8601639E+03  0.9852444E-03 -0.5643800E+04  0.2445226E-12
 -0.2600000E+01 -0.6873245E+03  0.9793754E-04 -0.9426589E+03  0.5004975E-03 -0.4899544E+04  0.2586319E-12
 -0.2500000E+01 -0.5475699E+03  0.8621677E-04 -0.1002013E+04  0.5431229E-05 -0.3904763E+04  0.2620939E-12
 -0.2400000E+01 -0.3748386E+03  0.7202425E-04 -0.1033687E+04 -0.4870193E-03 -0.2675070E+04  0.2544520E-12
 -0.2300000E+01 -0.1724522E+03  0.5585554E-04 -0.1033686E+04 -0.9641988E-03 -0.1234116E+04  0.2355956E-12
 -0.2200000E+01  0.5520067E+02  0.3824199E-04 -0.9987016E+03 -0.1414118E-02  0.3868532E+03  0.2057648E-12
 -0.2100000E+01  0.3027772E+03  0.1973014E-04 -0.9262436E+03 -0.1825826E-02  0.2149791E+04  0.1655439E-12
 -0.2000000E+01  0.5641125E+03  0.8616979E-06 -0.8147460E+03 -0.2189737E-02  0.4010798E+04  0.1158447E-12
 -0.1900000E+01  0.8323882E+03 -0.1784523E-04 -0.6636542E+03 -0.2497921E-02  0.5921307E+04  0.5787932E-13
 -0.1800000E+01  0.1100324E+04 -0.3591405E-04 -0.4734772E+03 -0.2744338E-02  0.7829479E+04 -0.6875355E-14
 -0.1700000E+01  0.1360390E+04 -0.5292429E-04 -0.2458095E+03 -0.2924999E-02  0.9681680E+04 -0.7672336E-13
 -0.1600000E+01  0.1605029E+04 -0.6852441E-04  0.1666742E+02 -0.3038074E-02  0.1142407E+05 -0.1497984E-12
 -0.1500000E+01  0.1826879E+04 -0.8244064E-04  0.3102344E+03 -0.3083917E-02  0.1300424E+05 -0.2241212E-12
 -0.1400000E+01  0.2019010E+04 -0.9448291E-04  0.6301982E+03 -0.3065032E-02  0.1437280E+05 -0.2976575E-12
 -0.1300000E+01  0.2175130E+04 -0.1045468E-03  0.9709976E+03 -0.2985957E-02  0.1548496E+05 -0.3683799E-12
 -0.1200000E+01  0.2289794E+04 -0.1126122E-03  0.1326334E+04 -0.2853081E-02  0.1630193E+05 -0.4343268E-12
 -0.1100000E+01  0.2358582E+04 -0.1187383E-03  0.1689319E+04 -0.2674421E-02  0.1679220E+05 -0.4936620E-12
 -0.1000000E+01  0.2378238E+04 -0.1230559E-03  0.2052651E+04 -0.2459315E-02  0.1693260E+05 -0.5447272E-12
 -0.9000000E+00  0.2346800E+04 -0.1257561E-03  0.2408804E+04 -0.2218103E-02  0.1670915E+05 -0.5860927E-12
 -0.8000000E+00  0.2263670E+04 -0.1270781E-03  0.2750224E+04 -0.1961755E-02  0.1611757E+05 -0.6165971E-12
 -0.7000000E+00  0.2129650E+04 -0.1272939E-03  0.3069528E+04 -0.1701491E-02  0.1516357E+05 -0.6353824E-12
 -0.6000000E+00  0.1946943E+04 -0.1266934E-03  0.3359706E+04 -0.1448391E-02  0.1386284E+05 -0.6419173E-12
 -0.5000000E+00  0.1719100E+04 -0.1255683E-03  0.3614307E+04 -0.1213012E-02  0.1224067E+05 -0.6360138E-12
 -0.4000000E+00  0.1450935E+04 -0.1241964E-03  0.3827624E+04 -0.1005027E-02  0.1033133E+05 -0.6178292E-12
 -0.3000000E+00  0.1148397E+04 -0.1228280E-03  0.3994845E+04 -0.8328789E-03  0.8177189E+04 -0.5878622E-12
 -0.2000000E+00  0.8184070E+03 -0.1216723E-03  0.4112179E+04 -0.7035180E-03  0.5827542E+04 -0.5469372E-12
 -0.1000000E+00  0.4686691E+03 -0.1208875E-03  0.4176967E+04 -0.6221305E-03  0.3337252E+04 -0.4961781E-12
  0.0000000E+00  0.1074500E+03 -0.1205729E-03  0.4187774E+04 -0.5919883E-03  0.7651927E+03 -0.4369765E-12
  0.1000000E+00 -0.2566517E+03 -0.1207635E-03  0.4144388E+04 -0.6143174E-03 -0.1827397E+04 -0.3709491E-12
  0.2000000E+00 -0.6149513E+03 -0.1214290E-03  0.4047860E+04 -0.6882674E-03 -0.4378666E+04 -0.2998918E-12
  0.3000000E+00 -0.9589236E+03 -0.1224748E-03  0.3900461E+04 -0.8109347E-03 -0.6827900E+04 -0.2257261E-12
  0.4000000E+00 -0.1280446E+04 -0.1237470E-03  0.3705619E+04 -0.9774596E-03 -0.9117256E+04 -0.1504457E-12
  0.5000000E+00 -0.1572029E+04 -0.1250401E-03  0.3467819E+04 -0.1181194E-02 -0.1119338E+05 -0.7605891E-13
  0.6000000E+00 -0.1827025E+04 -0.1261069E-03  0.3192487E+04 -0.1413929E-02 -0.1300894E+05 -0.4532627E-14
  0.7000000E+00 -0.2039809E+04 -0.1266719E-03  0.2885830E+04 -0.1666171E-02 -0.1452389E+05  0.6226234E-13
  0.8000000E+00 -0.2205942E+04 -0.1264449E-03  0.2554674E+04 -0.1927474E-02 -0.1570660E+05  0.1226018E-12
  0.9000000E+00 -0.2322276E+04 -0.1251363E-03  0.2206267E+04 -0.2186789E-02 -0.1653466E+05  0.1749549E-12
  0.1000000E+01 -0.2387038E+04 -0.1224736E-03  0.1848095E+04 -0.2432852E-02 -0.1699546E+05  0.2180230E-12
  0.1100000E+01 -0.2399861E+04 -0.1182160E-03  0.1487672E+04 -0.2654571E-02 -0.1708637E+05  0.2507728E-12
  0.1200000E+01 -0.2361782E+04 -0.1121696E-03  0.1132343E+04 -0.2841413E-02 -0.1681480E+05  0.2724609E-12
  0.1300000E+01 -0.2275189E+04 -0.1042001E-03  0.7891029E+03 -0.2983770E-02 -0.1619774E+05  0.2826486E-12
  0.1400000E+01 -0.2143732E+04 -0.9424366E-04  0.4644048E+03 -0.3073309E-02 -0.1526121E+05  0.2812087E-12
  0.1500000E+01 -0.1972197E+04 -0.8231508E-04  0.1640108E+03 -0.3103263E-02 -0.1403930E+05  0.2683232E-12
  0.1600000E+01 -0.1766347E+04 -0.6851285E-04 -0.1071425E+03 -0.3068685E-02 -0.1257308E+05  0.2444709E-12
  0.1700000E+01 -0.1532742E+04 -0.5302057E-04 -0.3450589E+03 -0.2966637E-02 -0.1090923E+05  0.2104092E-12
  0.1800000E+01 -0.1278520E+04 -0.3610544E-04 -0.5467575E+03 -0.2796324E-02 -0.9098620E+04  0.1671451E-12
  0.1900000E+01 -0.1011187E+04 -0.1811237E-04 -0.7103221E+03 -0.2559143E-02 -0.7194706E+04  0.1159024E-12
  0.2000000E+01 -0.7383792E+03  0.5446790E-06 -0.8349188E+03 -0.2258670E-02 -0.5251873E+04  0.5808124E-13
  0.2100000E+01 -0.4676407E+03  0.1939485E-04 -0.9207761E+03 -0.1900575E-02 -0.3323856E+04 -0.4784330E-14
  0.2200000E+01 -0.2062006E+03  0.3792526E-04 -0.9691451E+03 -0.1492469E-02 -0.1462137E+04 -0.7107330E-13
  0.2300000E+01  0.3923699E+02  0.5559816E-04 -0.9822159E+03 -0.1043683E-02  0.2855316E+03 -0.1391252E-12
  0.2400000E+01  0.2626766E+03  0.7186986E-04 -0.9630213E+03 -0.5649868E-03  0.1876470E+04 -0.2072870E-12
  0.2500000E+01  0.4589928E+03  0.8621052E-04 -0.9153157E+03 -0.6827823E-04  0.3274167E+04 -0.2739586E-12
  0.2600000E+01  0.6240605E+03  0.9812428E-04 -0.8434277E+03  0.4337912E-03  0.4449258E+04 -0.3376360E-12
  0.2700000E+01  0.7548506E+03  0.1071686E-03 -0.7521137E+03  0.9281979E-03  0.5380175E+04 -0.3969484E-12
  0.2800000E+01  0.8494888E+03  0.1129729E-03 -0.6463904E+03  0.1401953E-02  0.6053581E+04 -0.4506923E-12
  0.2900000E+01  0.9072762E+03  0.1152548E-03 -0.5313764E+03  0.1842502E-02  0.6464505E+04 -0.4978579E-12
  0.3000000E+01  0.9286724E+03  0.1138338E-03 -0.4121285E+03  0.2238116E-02  0.6616239E+04 -0.5376481E-12
  0.3100000E+01  0.9152432E+03  0.1086417E-03 -0.2934885E+03  0.2578265E-02  0.6519947E+04 -0.5694916E-12
  0.3200000E+01  0.8695735E+03  0.9972929E-04 -0.1799443E+03  0.2853938E-02  0.6194043E+04 -0.5930488E-12
  0.3300000E+01  0.7951488E+03  0.8726939E-04 -0.7550439E+02  0.3057940E-02  0.5663369E+04 -0.6082073E-12
  0.3400000E+01  0.6962118E+03  0.7155506E-04  0.1640582E+02  0.3185111E-02  0.4958156E+04 -0.6150754E-12
  0.3500000E+01  0.5776014E+03  0.5299386E-04  0.9302321E+02  0.3232500E-02  0.4112875E+04 -0.6139629E-12
  0.3600000E+01  0.4445706E+03  0.3209800E-04  0.1523071E+03  0.3199452E-02  0.3164950E+04 -0.6053630E-12
  0.3700000E+01  0.3026028E+03  0.9470377E-05  0.1929669E+03  0.3087649E-02  0.2153445E+04 -0.5899224E-12
  0.3800000E+01  0.1572222E+03 -0.1421271E-04  0.2144683E+03  0.2901052E-02  0.1117700E+04 -0.5684127E-12
  0.3900000E+01  0.1380742E+02 -0.3822208E-04  0.2170116E+03  0.2645793E-02  0.9603897E+02 -0.5416967E-12
  0.4000000E+01 -0.1225781E+03 -0.6179795E-04  0.2014876E+03  0.2329989E-02 -0.8754802E+03 -0.5106955E-12
  0.4100000E+01 -0.2473483E+03 -0.8417479E-04  0.1694148E+03  0.1963503E-02 -0.1764189E+04 -0.4763519E-12
  0.4200000E+01 -0.3565291E+03 -0.1046060E-03  0.1228490E+03  0.1557639E-02 -0.2541790E+04 -0.4395968E-12
  0.4300000E+01 -0.4468699E+03 -0.1223883E-03  0.6429108E+02  0.1124816E-02 -0.3185133E+04 -0.4013207E-12
  0.4400000E+01 -0.5159309E+03 -0.1368865E-03 -0.3429369E+01  0.6781816E-03 -0.3676847E+04 -0.3623428E-12
  0.4500000E+01 -0.5621326E+03 -0.1475557E-03 -0.7726740E+02  0.2312213E-03 -0.4005693E+04 -0.3233878E-12
  0.4600000E+01 -0.5847811E+03 -0.1539601E-03 -0.1540857E+03 -0.2026395E-03 -0.4166734E+04 -0.2850679E-12
  0.4700000E+01 -0.5840576E+03 -0.1557899E-03 -0.2307727E+03 -0.6104427E-03 -0.4161271E+04 -0.2478678E-12
  0.4800000E+01 -0.5609810E+03 -0.1528736E-03 -0.3043533E+03 -0.9800697E-03 -0.3996575E+04 -0.2121391E-12
  0.4900000E+01 -0.5173395E+03 -0.1451865E-03 -0.3720965E+03 -0.1300615E-02 -0.3685392E+04 -0.1780961E-12
  0.5000000E+01 -0.4556015E+03 -0.1328534E-03 -0.4316038E+03 -0.1562689E-02 -0.3245313E+04 -0.1458218E-12
  0.5100000E+01 -0.3788003E+03 -0.1161481E-03 -0.4808858E+03 -0.1758693E-02 -0.2697956E+04 -0.1152760E-12
  0.5200000E+01 -0.2904070E+03 -0.9548607E-04 -0.5184202E+03 -0.1883038E-02 -0.2068052E+04 -0.8631035E-13
  0.5300000E+01 -0.1941907E+03 -0.7141508E-04 -0.5431901E+03 -0.1932283E-02 -0.1382456E+04 -0.5868820E-13
  0.5400000E+01 -0.9406943E+02 -0.4459841E-04 -0.5547039E+03 -0.1905236E-02 -0.6690866E+03 -0.3210495E-13
  0.5500000E+01  0.6034142E+01 -0.1579627E-04 -0.5529929E+03 -0.1802959E-02  0.4411568E+02 -0.6213483E-14
  0.5600000E+01  0.1023375E+03  0.1415618E-04 -0.5385928E+03 -0.1628721E-02  0.7302035E+03  0.1934971E-13
  0.5700000E+01  0.1913326E+03  0.4437476E-04 -0.5125053E+03 -0.1387884E-02  0.1364183E+04  0.4493752E-13
  0.5800000E+01  0.2699014E+03  0.7395213E-04 -0.4761429E+03 -0.1087718E-02  0.1923850E+04  0.7086767E-13
  0.5900000E+01  0.3354229E+03  0.1019863E-03 -0.4312642E+03 -0.7371677E-03  0.2390534E+04  0.9739891E-13
  0.6000000E+01  0.3858514E+03  0.1276079E-03 -0.3798916E+03 -0.3465727E-03  0.2749665E+04  0.1247086E-12
  0.6100000E+01  0.4197732E+03  0.1500069E-03 -0.3242307E+03  0.7265949E-04  0.2991179E+04  0.1528773E-12
  0.6200000E+01  0.4364414E+03  0.1684578E-03 -0.2665777E+03  0.5083984E-03  0.3109760E+04  0.1818748E-12
  0.6300000E+01  0.4357813E+03  0.1823418E-03 -0.2092303E+03  0.9481584E-03  0.3104882E+04  0.2115531E-12
  0.6400000E+01  0.4183743E+03  0.1911661E-03 -0.1544001E+03  0.1379474E-02  0.2980693E+04  0.2416429E-12
  0.6500000E+01  0.3854151E+03  0.1945791E-03 -0.1041315E+03  0.1790269E-02  0.2745713E+04  0.2717576E-12
  0.6600000E+01  0.3386512E+03  0.1923808E-03 -0.6022884E+02  0.2169207E-02  0.2412395E+04  0.3014015E-12
  0.6700000E+01  0.2802999E+03  0.1845293E-03 -0.2419453E+02  0.2506010E-02  0.1996539E+04  0.3299828E-12
  0.6800000E+01  0.2129517E+03  0.1711412E-03  0.2818642E+01  0.2791751E-02  0.1516609E+04  0.3568327E-12
  0.6900000E+01  0.1394633E+03  0.1524887E-03  0.2004094E+02  0.3019094E-02  0.9929546E+03  0.3812285E-12
  0.7000000E+01  0.6284223E+02  0.1289901E-03  0.2710639E+02  0.3182490E-02  0.4470101E+03  0.4024177E-12
  0.7100000E+01 -0.1387036E+02  0.1011970E-03  0.2405189E+02  0.3278302E-02 -0.9956070E+02  0.4196477E-12
  0.7200000E+01 -0.8771562E+02  0.6977715E-04  0.1130619E+02  0.3304889E-02 -0.6256765E+03  0.4321949E-12
  0.7300000E+01 -0.1559249E+03  0.3549500E-04 -0.1033675E+02  0.3262613E-02 -0.1111613E+04  0.4393931E-12
  0.7400000E+01 -0.2160222E+03 -0.8137785E-06 -0.3976021E+02  0.3153794E-02 -0.1539733E+04  0.4406643E-12
  0.7500000E+01 -0.2659079E+03 -0.3826530E-04 -0.7557561E+02  0.2982603E-02 -0.1895078E+04  0.4355440E-12
  0.7600000E+01 -0.3039295E+03 -0.7595499E-04 -0.1161830E+03  0.2754910E-02 -0.2165880E+04  0.4237057E-12
  0.7700000E+01 -0.3289323E+03 -0.1129841E-03 -0.1598376E+03  0.2478066E-02 -0.2343915E+04  0.4049800E-12
  0.7800000E+01 -0.3402905E+03 -0.1484847E-03 -0.2047234E+03  0.2160673E-02 -0.2424729E+04  0.3793703E-12
  0.7900000E+01 -0.3379187E+03 -0.1816456E-03 -0.2490220E+03  0.1812285E-02 -0.2407720E+04  0.3470618E-12
  0.8000000E+01 -0.3222607E+03 -0.2117341E-03 -0.2909844E+03  0.1443118E-02 -0.2296049E+04  0.3084260E-12
  0.8100000E+01 -0.2942594E+03 -0.2381153E-03 -0.3289975E+03  0.1063725E-02 -0.2096442E+04  0.2640167E-12
  0.8200000E+01 -0.2553094E+03 -0.2602681E-03 -0.3616409E+03  0.6846944E-03 -0.1818839E+04  0.2145637E-12
  0.8300000E+01 -0.2071924E+03 -0.2777987E-03 -0.3877397E+03  0.3163063E-03 -0.1475934E+04  0.1609554E-12
  0.8400001E+01 -0.1520003E+03 -0.2904462E-03 -0.4064016E+03 -0.3173662E-04 -0.1082634E+04  0.1042216E-12
  0.8500000E+01 -0.9204704E+02 -0.2980883E-03 -0.4170464E+03 -0.3505947E-03 -0.6554319E+03  0.4550652E-13
  0.8600000E+01 -0.2977476E+02 -0.3007399E-03 -0.4194195E+03 -0.6325377E-03 -0.2117215E+03 -0.1396196E-13
  0.8700000E+01  0.3234098E+02 -0.2985470E-03 -0.4135961E+03 -0.8711370E-03  0.2308530E+03 -0.7290004E-13
  0.8800000E+01  0.9188998E+02 -0.2917795E-03 -0.3999687E+03 -0.1061430E-02  0.6551224E+03 -0.1300099E-12
  0.8900001E+01  0.1466154E+03 -0.2808168E-03 -0.3792257E+03 -0.1200021E-02  0.1045009E+04 -0.1840099E-12
  0.9000000E+01  0.1944977E+03 -0.2661338E-03 -0.3523179E+03 -0.1285157E-02  0.1386123E+04 -0.2336731E-12
  0.9100000E+01  0.2338302E+03 -0.2482808E-03 -0.3204144E+03 -0.1316718E-02  0.1666308E+04 -0.2778643E-12
  0.9200000E+01  0.2632727E+03 -0.2278655E-03 -0.2848538E+03 -0.1296191E-02  0.1876017E+04 -0.3155675E-12
  0.9300000E+01  0.2818994E+03 -0.2055299E-03 -0.2470881E+03 -0.1226566E-02  0.2008659E+04 -0.3459194E-12
  0.9400001E+01  0.2892230E+03 -0.1819311E-03 -0.2086227E+03 -0.1112218E-02  0.2060761E+04 -0.3682331E-12
  0.9500000E+01  0.2852051E+03 -0.1577186E-03 -0.1709588E+03 -0.9587297E-03  0.2032056E+04 -0.3820149E-12
  0.9600000E+01  0.2702482E+03 -0.1335144E-03 -0.1355329E+03 -0.7726834E-03  0.1925412E+04 -0.3869829E-12
  0.9700000E+01  0.2451718E+03 -0.1098959E-03 -0.1036627E+03 -0.5614429E-03  0.1746671E+04 -0.3830701E-12
  0.9800000E+01  0.2111688E+03 -0.8737897E-04 -0.7649874E+02 -0.3328940E-03  0.1504337E+04 -0.3704276E-12
  0.9900001E+01  0.1697564E+03 -0.6640493E-04 -0.5498413E+02 -0.9520265E-04  0.1209221E+04 -0.3494185E-12
  0.1000000E+02  0.1227082E+03 -0.4733036E-04 -0.3982003E+02  0.1434483E-03  0.8739602E+03 -0.3206071E-12
