 VARIABLES="Time (s)"
"IRF    1"
"IRF    2"
"IRF    3"
"IRF    4"
"IRF    5"
"IRF    6"
Zone t="beta  0.5235988E+00",I=   199,F=POINT
 -0.9800000E+01 -0.1941810E+03 -0.1121107E+03  0.2200020E+02  0.2149252E+02 -0.3722622E+02  0.1116418E-06
 -0.9700000E+01 -0.1603005E+03 -0.9254984E+02  0.5869973E+01  0.1784198E+02 -0.3090315E+02  0.1403264E-06
 -0.9600000E+01 -0.9765751E+02 -0.5638306E+02 -0.7976758E+01  0.1081485E+02 -0.1873168E+02  0.1442841E-06
 -0.9500000E+01 -0.1780538E+02 -0.1028057E+02 -0.1975884E+02  0.1689336E+01 -0.2925805E+01  0.1219463E-06
 -0.9400001E+01  0.6391201E+02  0.3689872E+02 -0.3022950E+02 -0.7797015E+01  0.1350499E+02  0.7686003E-07
 -0.9300000E+01  0.1312567E+03  0.7577997E+02 -0.4052812E+02 -0.1577428E+02  0.2732186E+02  0.1718115E-07
 -0.9200000E+01  0.1702429E+03  0.9828850E+02 -0.5193270E+02 -0.2060166E+02  0.3568290E+02 -0.4576599E-07
 -0.9100000E+01  0.1720078E+03  0.9930738E+02 -0.6558704E+02 -0.2120217E+02  0.3672274E+02 -0.9961349E-07
 -0.9000000E+01  0.1347275E+03  0.7778370E+02 -0.8223476E+02 -0.1729382E+02  0.2995298E+02 -0.1333495E-06
 -0.8900001E+01  0.6425941E+02  0.3709916E+02 -0.1020229E+03 -0.9476484E+01  0.1641270E+02 -0.1395474E-06
 -0.8800000E+01 -0.2674438E+02 -0.1544150E+02 -0.1244167E+03  0.8554165E+00 -0.1482825E+01 -0.1159570E-06
 -0.8700000E+01 -0.1210584E+03 -0.6989317E+02 -0.1482431E+03  0.1175659E+02 -0.2036426E+02 -0.6614853E-07
 -0.8600000E+01 -0.2001138E+03 -0.1155352E+03 -0.1718605E+03  0.2109412E+02 -0.3653726E+02  0.9858057E-09
 -0.8500000E+01 -0.2475994E+03 -0.1429504E+03 -0.1934305E+03  0.2696014E+02 -0.4669729E+02  0.7278408E-07
 -0.8400001E+01 -0.2527593E+03 -0.1459288E+03 -0.2112348E+03  0.2805590E+02 -0.4859486E+02  0.1351745E-06
 -0.8300000E+01 -0.2127105E+03 -0.1228062E+03 -0.2239849E+03  0.2396919E+02 -0.4151603E+02  0.1753984E-06
 -0.8200000E+01 -0.1333052E+03 -0.7696134E+02 -0.2310579E+03  0.1528840E+02 -0.2648000E+02  0.1845636E-06
 -0.8100000E+01 -0.2830065E+02 -0.1633672E+02 -0.2326122E+03  0.3523494E+01 -0.6102140E+01  0.1595404E-06
 -0.8000000E+01  0.8304265E+02  0.4794732E+02 -0.2295554E+03 -0.9155941E+01  0.1585961E+02  0.1037926E-06
 -0.7900000E+01  0.1795480E+03  0.1036645E+03 -0.2233675E+03 -0.2032310E+02  0.3520198E+02  0.2693150E-07
 -0.7800000E+01  0.2422155E+03  0.1398450E+03 -0.2158044E+03 -0.2776178E+02  0.4808620E+02 -0.5694917E-07
 -0.7700000E+01  0.2580213E+03  0.1489700E+03 -0.2085412E+03 -0.2990788E+02  0.5180331E+02 -0.1318730E-06
 -0.7600000E+01  0.2227166E+03  0.1285861E+03 -0.2028210E+03 -0.2618261E+02  0.4535077E+02 -0.1830626E-06
 -0.7500000E+01  0.1419696E+03  0.8196612E+02 -0.1991801E+03 -0.1714120E+02  0.2969028E+02 -0.1998734E-06
 -0.7400000E+01  0.3063402E+02  0.1768581E+02 -0.1973004E+03 -0.4406993E+01  0.7633672E+01 -0.1780461E-06
 -0.7300000E+01 -0.8983677E+02 -0.5186877E+02 -0.1960367E+03  0.9607996E+01 -0.1664137E+02 -0.1207660E-06
 -0.7200000E+01 -0.1953612E+03 -0.1127939E+03 -0.1936076E+03  0.2214752E+02 -0.3836074E+02 -0.3831387E-07
 -0.7100000E+01 -0.2638628E+03 -0.1523437E+03 -0.1879249E+03  0.3063909E+02 -0.5306877E+02  0.5369557E-07
 -0.7000000E+01 -0.2796956E+03 -0.1614851E+03 -0.1769997E+03  0.3320669E+02 -0.5751608E+02  0.1371856E-06
 -0.6900000E+01 -0.2369759E+03 -0.1368209E+03 -0.1593542E+03  0.2906661E+02 -0.5034518E+02  0.1950796E-06
 -0.6800000E+01 -0.1411179E+03 -0.8147720E+02 -0.1343477E+03  0.1872319E+02 -0.3242976E+02  0.2146899E-06
 -0.6700000E+01 -0.8220221E+01 -0.4748634E+01 -0.1023618E+03  0.3920531E+01 -0.6790638E+01  0.1903770E-06
 -0.6600000E+01  0.1376678E+03  0.7948013E+02 -0.6479004E+02 -0.1265063E+02  0.2191165E+02  0.1249232E-06
 -0.6500000E+01  0.2689498E+03  0.1552764E+03 -0.2383755E+02 -0.2784316E+02  0.4822602E+02  0.2930946E-07
 -0.6400000E+01  0.3597610E+03  0.2077068E+03  0.1784684E+02 -0.3865287E+02  0.6694908E+02 -0.7912563E-07
 -0.6300000E+01  0.3911039E+03  0.2258034E+03  0.5763618E+02 -0.4281236E+02  0.7415349E+02 -0.1798389E-06
 -0.6200000E+01  0.3548526E+03  0.2048743E+03  0.9340022E+02 -0.3926486E+02  0.6800893E+02 -0.2529808E-06
 -0.6100000E+01  0.2557880E+03  0.1476801E+03  0.1239009E+03 -0.2842027E+02  0.4922528E+02 -0.2833118E-06
 -0.6000000E+01  0.1111819E+03  0.6419238E+02  0.1490211E+03 -0.1213414E+02  0.2101655E+02 -0.2633621E-06
 -0.5900000E+01 -0.5207612E+02 -0.3006414E+02  0.1697837E+03  0.6596391E+01 -0.1142600E+02 -0.1952007E-06
 -0.5800000E+01 -0.2023739E+03 -0.1168382E+03  0.1881362E+03  0.2417394E+02 -0.4187149E+02 -0.9039612E-07
 -0.5700000E+01 -0.3093733E+03 -0.1786143E+03  0.2065471E+03  0.3707957E+02 -0.6422495E+02  0.3186881E-07
 -0.5600000E+01 -0.3500338E+03 -0.2020898E+03  0.2274733E+03  0.4256654E+02 -0.7372875E+02  0.1482502E-06
 -0.5500000E+01 -0.3134534E+03 -0.1809703E+03  0.2528089E+03  0.3923138E+02 -0.6795202E+02  0.2356442E-06
 -0.5400000E+01 -0.2035416E+03 -0.1175134E+03  0.2834126E+03  0.2734743E+02 -0.4736818E+02  0.2757242E-06
 -0.5300000E+01 -0.3891820E+02 -0.2246853E+02  0.3188229E+03  0.8885244E+01 -0.1539039E+02  0.2587190E-06
 -0.5200000E+01  0.1500983E+03  0.8665949E+02  0.3572224E+03 -0.1279890E+02  0.2216807E+02  0.1856746E-06
 -0.5100000E+01  0.3268877E+03  0.1887281E+03  0.3956606E+03 -0.3355565E+02  0.5812040E+02  0.6871321E-07
 -0.5000000E+01  0.4554398E+03  0.2629471E+03  0.4305256E+03 -0.4922004E+02  0.8525236E+02 -0.7087689E-07
 -0.4900000E+01  0.5074496E+03  0.2929747E+03  0.4581620E+03 -0.5642505E+02  0.9773225E+02 -0.2064057E-06
 -0.4800000E+01  0.4682308E+03  0.2703315E+03  0.4755372E+03 -0.5329718E+02  0.9231486E+02 -0.3107617E-06
 -0.4700000E+01  0.3402607E+03  0.1964482E+03  0.4808185E+03 -0.3989430E+02  0.6910055E+02 -0.3616905E-06
 -0.4600000E+01  0.1435350E+03  0.8286922E+02  0.4737435E+03 -0.1828761E+02  0.3167662E+02 -0.3463534E-06
 -0.4500000E+01 -0.8748392E+02 -0.5050881E+02  0.4557047E+03  0.7744498E+01 -0.1341250E+02 -0.2642564E-06
 -0.4400000E+01 -0.3098883E+03 -0.1789129E+03  0.4295126E+03  0.3336894E+02 -0.5779573E+02 -0.1279095E-06
 -0.4300000E+01 -0.4803040E+03 -0.2773015E+03  0.3988657E+03  0.5358821E+02 -0.9281692E+02  0.3901523E-07
 -0.4200000E+01 -0.5633650E+03 -0.3252557E+03  0.3676185E+03  0.6420659E+02 -0.1112089E+03  0.2057766E-06
 -0.4100000E+01 -0.5390669E+03 -0.3112264E+03  0.3389850E+03  0.6269049E+02 -0.1085834E+03  0.3402139E-06
 -0.4000000E+01 -0.4075184E+03 -0.2352764E+03  0.3148235E+03  0.4875051E+02 -0.8443900E+02  0.4149406E-06
 -0.3900000E+01 -0.1900326E+03 -0.1097108E+03  0.2951566E+03  0.2451974E+02 -0.4247036E+02  0.4129079E-06
 -0.3800000E+01  0.7385391E+02  0.4264362E+02  0.2780363E+03 -0.5727737E+01  0.9919690E+01  0.3312263E-06
 -0.3700000E+01  0.3330686E+03  0.1923002E+03  0.2598041E+03 -0.3628741E+02  0.6285069E+02  0.1824385E-06
 -0.3600000E+01  0.5343224E+03  0.3084928E+03  0.2357124E+03 -0.6105120E+02  0.1057430E+03 -0.7131372E-08
 -0.3500000E+01  0.6324074E+03  0.3651205E+03  0.2008235E+03 -0.7467046E+02  0.1293326E+03 -0.2017767E-06
 -0.3400000E+01  0.5995429E+03  0.3461443E+03  0.1510107E+03 -0.7364002E+02  0.1275481E+03 -0.3628392E-06
 -0.3300000E+01  0.4319193E+03  0.2493649E+03  0.8388343E+02 -0.5709188E+02  0.9888631E+02 -0.4560509E-06
 -0.3200000E+01  0.1520224E+03  0.8776481E+02 -0.5639757E+00 -0.2713084E+02  0.4699255E+02 -0.4584117E-06
 -0.3100000E+01 -0.1939832E+03 -0.1120027E+03 -0.9972889E+02  0.1137935E+02 -0.1970878E+02 -0.3632767E-06
 -0.3000000E+01 -0.5436081E+03 -0.3138591E+03 -0.2086749E+03  0.5157047E+02 -0.8932171E+02 -0.1825739E-06
 -0.2900000E+01 -0.8290339E+03 -0.4786499E+03 -0.3209050E+03  0.8575517E+02 -0.1485314E+03  0.5441214E-07
 -0.2800000E+01 -0.9899167E+03 -0.5715344E+03 -0.4295095E+03  0.1068474E+03 -0.1850644E+03  0.3056582E-06
 -0.2700000E+01 -0.9856705E+03 -0.5690815E+03 -0.5285043E+03  0.1097636E+03 -0.1901158E+03  0.5237219E-06
 -0.2600000E+01 -0.8049042E+03 -0.4647139E+03 -0.6141060E+03  0.9254367E+02 -0.1602903E+03  0.6645373E-06
 -0.2500000E+01 -0.4700269E+03 -0.2713703E+03 -0.6856802E+03  0.5696306E+02 -0.9866331E+02  0.6961022E-06
 -0.2400000E+01 -0.3582742E+02 -0.2068317E+02 -0.7461394E+03  0.8490752E+01 -0.1470732E+02  0.6054179E-06
 -0.2300000E+01  0.4181560E+03  0.2414261E+03 -0.8016417E+03 -0.4444402E+02  0.7697805E+02  0.4022664E-06
 -0.2200000E+01  0.8004984E+03  0.4621728E+03 -0.8605593E+03 -0.9178551E+02  0.1589756E+03  0.1189419E-06
 -0.2100000E+01  0.1024046E+04  0.5912383E+03 -0.9318197E+03 -0.1235859E+03  0.2140555E+03 -0.1942833E-06
 -0.2000000E+01  0.1022649E+04  0.5904310E+03 -0.1022839E+04 -0.1318514E+03  0.2283719E+03 -0.4773666E-06
 -0.1900000E+01  0.7655153E+03  0.4419737E+03 -0.1137383E+04 -0.1121771E+03  0.1942952E+03 -0.6710999E-06
 -0.1800000E+01  0.2664423E+03  0.1538319E+03 -0.1273713E+04 -0.6486532E+02  0.1123493E+03 -0.7283247E-06
 -0.1700000E+01 -0.4140986E+03 -0.2390813E+03 -0.1423413E+04  0.4704746E+01 -0.8148939E+01 -0.6237411E-06
 -0.1600000E+01 -0.1174894E+04 -0.6783292E+03 -0.1571141E+04  0.8656979E+02 -0.1499428E+03 -0.3604514E-06
 -0.1500000E+01 -0.1887498E+04 -0.1089754E+04 -0.1695534E+04  0.1675079E+03 -0.2901310E+03  0.2814787E-07
 -0.1400000E+01 -0.2415542E+04 -0.1394622E+04 -0.1771207E+04  0.2330209E+03 -0.4036023E+03  0.4817712E-06
 -0.1300000E+01 -0.2636948E+04 -0.1522452E+04 -0.1771718E+04  0.2696768E+03 -0.4670917E+03  0.9216666E-06
 -0.1200000E+01 -0.2465519E+04 -0.1423477E+04 -0.1673114E+04  0.2674364E+03 -0.4632112E+03  0.1262913E-05
 -0.1100000E+01 -0.1868278E+04 -0.1078659E+04 -0.1457624E+04  0.2215760E+03 -0.3837788E+03  0.1428672E-05
 -0.1000000E+01 -0.8754335E+03 -0.5054366E+03 -0.1116959E+04  0.1338623E+03 -0.2318547E+03  0.1364077E-05
 -0.9000000E+00  0.4190887E+03  0.2419597E+03 -0.6547197E+03  0.1274938E+02 -0.2208187E+02  0.1047350E-05
 -0.8000000E+00  0.1867138E+04  0.1077997E+04 -0.8748940E+02 -0.1274850E+03  0.2208104E+03  0.4961193E-06
 -0.7000000E+00  0.3284882E+04  0.1896537E+04  0.5556194E+03 -0.2685715E+03  0.4651784E+03 -0.2323909E-06
 -0.6000000E+00  0.4477896E+04  0.2585328E+04  0.1235022E+04 -0.3908004E+03  0.6768837E+03 -0.1047647E-05
 -0.5000000E+00  0.5269168E+04  0.3042172E+04  0.1904141E+04 -0.4759129E+03  0.8243024E+03 -0.1837851E-05
 -0.4000000E+00  0.5525764E+04  0.3190319E+04  0.2513918E+04 -0.5098909E+03  0.8831531E+03 -0.2486047E-05
 -0.3000000E+00  0.5180035E+04  0.2990713E+04  0.3017832E+04 -0.4852024E+03  0.8403914E+03 -0.2887849E-05
 -0.2000000E+00  0.4241907E+04  0.2449083E+04  0.3376785E+04 -0.4021402E+03  0.6965236E+03 -0.2968025E-05
 -0.1000000E+00  0.2800166E+04  0.1616690E+04  0.3563269E+04 -0.2690213E+03  0.4659558E+03 -0.2693229E-05
  0.0000000E+00  0.1012274E+04  0.5844456E+03  0.3564242E+04 -0.1011958E+03  0.1752746E+03 -0.2078762E-05
  0.1000000E+00 -0.9159565E+03 -0.5288248E+03  0.3382388E+04  0.8100649E+02 -0.1403076E+03 -0.1188105E-05
  0.2000000E+00 -0.2757946E+04 -0.1592304E+04  0.3035616E+04  0.2550893E+03 -0.4418263E+03 -0.1251393E-06
  0.3000000E+00 -0.4297151E+04 -0.2480971E+04  0.2554829E+04  0.3995443E+03 -0.6920281E+03  0.9798993E-06
  0.4000000E+00 -0.5356531E+04 -0.3092609E+04  0.1980358E+04  0.4968695E+03 -0.8605989E+03  0.1988672E-05
  0.5000000E+00 -0.5822329E+04 -0.3361542E+04  0.1357458E+04  0.5359976E+03 -0.9283699E+03  0.2774423E-05
  0.6000000E+00 -0.5658672E+04 -0.3267055E+04  0.7315059E+03  0.5137677E+03 -0.8898660E+03  0.3240098E-05
  0.7000000E+00 -0.4910920E+04 -0.2835341E+04  0.1434903E+03  0.4352299E+03 -0.7538347E+03  0.3332111E-05
  0.8000000E+00 -0.3697429E+04 -0.2134729E+04 -0.3736810E+03  0.3127472E+03 -0.5416890E+03  0.3047665E-05
  0.9000000E+00 -0.2191122E+04 -0.1265057E+04 -0.7976254E+03  0.1640527E+03 -0.2841440E+03  0.2434514E-05
  0.1000000E+01 -0.5938267E+03 -0.3428527E+03 -0.1117491E+04  0.9571983E+01 -0.1657739E+02  0.1583278E-05
  0.1100000E+01  0.8926455E+03  0.5153689E+03 -0.1333497E+04 -0.1305667E+03  0.2261481E+03  0.6135586E-06
  0.1200000E+01  0.2094309E+04  0.1209155E+04 -0.1455210E+04 -0.2393740E+03  0.4146060E+03 -0.3439330E-06
  0.1300000E+01  0.2887601E+04  0.1667167E+04 -0.1498896E+04 -0.3052679E+03  0.5287360E+03 -0.1166436E-05
  0.1400000E+01  0.3213606E+04  0.1855391E+04 -0.1484403E+04 -0.3234442E+03  0.5602171E+03 -0.1756443E-05
  0.1500000E+01  0.3082131E+04  0.1779484E+04 -0.1432040E+04 -0.2961726E+03  0.5129806E+03 -0.2054656E-05
  0.1600000E+01  0.2565456E+04  0.1481182E+04 -0.1359895E+04 -0.2320192E+03  0.4018638E+03 -0.2046708E-05
  0.1700000E+01  0.1783250E+04  0.1029572E+04 -0.1281894E+04 -0.1441612E+03  0.2496899E+03 -0.1762863E-05
  0.1800000E+01  0.8813649E+03  0.5088641E+03 -0.1206813E+04 -0.4809724E+02  0.8330341E+02 -0.1270953E-05
  0.1900000E+01  0.8109908E+01  0.4685551E+01 -0.1138242E+04  0.4086093E+02 -0.7077507E+02 -0.6639415E-06
  0.2000000E+01 -0.7081889E+03 -0.4088750E+03 -0.1075372E+04  0.1099096E+03 -0.1903692E+03 -0.4427265E-07
  0.2100000E+01 -0.1176941E+04 -0.6795145E+03 -0.1014388E+04  0.1505334E+03 -0.2607301E+03  0.4923913E-06
  0.2200000E+01 -0.1355870E+04 -0.7828229E+03 -0.9501318E+03  0.1594921E+03 -0.2762458E+03  0.8714501E-06
  0.2300000E+01 -0.1253209E+04 -0.7235543E+03 -0.8777267E+03  0.1389031E+03 -0.2405837E+03  0.1049490E-05
  0.2400000E+01 -0.9217161E+03 -0.5321667E+03 -0.7938864E+03  0.9545949E+02 -0.1653368E+03  0.1018840E-05
  0.2500000E+01 -0.4460342E+03 -0.2575305E+03 -0.6977207E+03  0.3896539E+02 -0.6748649E+02  0.8061274E-06
  0.2600000E+01  0.7410224E+02  0.4277287E+02 -0.5909385E+03 -0.1953163E+02  0.3383265E+02  0.4653944E-06
  0.2700000E+01  0.5417720E+03  0.3127860E+03 -0.4774968E+03 -0.6967542E+02  0.1206831E+03  0.6719036E-07
  0.2800000E+01  0.8788629E+03  0.5074099E+03 -0.3628037E+03 -0.1034808E+03  0.1792343E+03 -0.3143236E-06
  0.2900000E+01  0.1037624E+04  0.5990751E+03 -0.2526841E+03 -0.1164916E+03  0.2017685E+03 -0.6140225E-06
  0.3000000E+01  0.1006152E+04  0.5809086E+03 -0.1523220E+03 -0.1082571E+03  0.1875048E+03 -0.7861090E-06
  0.3100000E+01  0.8073292E+03  0.4661206E+03 -0.6537994E+02 -0.8209048E+02  0.1421819E+03 -0.8104768E-06
  0.3200000E+01  0.4918489E+03  0.2839793E+03  0.6538686E+01 -0.4419727E+02  0.7654859E+02 -0.6942889E-06
  0.3300000E+01  0.1269499E+03  0.7330461E+02  0.6400918E+02 -0.2364428E+01  0.4092042E+01 -0.4687853E-06
  0.3400000E+01 -0.2168919E+03 -0.1252137E+03  0.1094956E+03  0.3553469E+02 -0.6155063E+02 -0.1821556E-06
  0.3500000E+01 -0.4788364E+03 -0.2764498E+03  0.1467217E+03  0.6294615E+02 -0.1090279E+03  0.1100663E-06
  0.3600000E+01 -0.6179178E+03 -0.3567513E+03  0.1798520E+03  0.7571382E+02 -0.1311411E+03  0.3552927E-06
  0.3700000E+01 -0.6189752E+03 -0.3573647E+03  0.2126443E+03  0.7265736E+02 -0.1258460E+03  0.5129933E-06
  0.3800000E+01 -0.4935431E+03 -0.2849493E+03  0.2477309E+03  0.5558141E+02 -0.9626861E+02  0.5611371E-06
  0.3900000E+01 -0.2758492E+03 -0.1592658E+03  0.2861670E+03  0.2874717E+02 -0.4978963E+02  0.4989521E-06
  0.4000000E+01 -0.1495656E+02 -0.8640547E+01  0.3273028E+03 -0.2066231E+01  0.3581122E+01  0.3457401E-06
  0.4100000E+01  0.2352932E+03  0.1358409E+03  0.3690013E+03 -0.3071788E+02  0.5320736E+02  0.1361677E-06
  0.4200000E+01  0.4265713E+03  0.2462762E+03  0.4081266E+03 -0.5185715E+02  0.8982145E+02 -0.8693097E-07
  0.4300000E+01  0.5247089E+03  0.3029373E+03  0.4412053E+03 -0.6186344E+02  0.1071523E+03 -0.2808134E-06
  0.4400000E+01  0.5152150E+03  0.2974582E+03  0.4651264E+03 -0.5941474E+02  0.1029104E+03 -0.4106223E-06
  0.4500000E+01  0.4048337E+03  0.2337315E+03  0.4777433E+03 -0.4560181E+02  0.7898502E+02 -0.4553183E-06
  0.4600000E+01  0.2190682E+03  0.1264816E+03  0.4782658E+03 -0.2359070E+02  0.4086002E+02 -0.4107792E-06
  0.4700000E+01 -0.3632237E+01 -0.2093086E+01  0.4673881E+03  0.2079360E+01 -0.3602250E+01 -0.2896572E-06
  0.4800000E+01 -0.2197923E+03 -0.1268924E+03  0.4471276E+03  0.2641572E+02 -0.4575431E+02 -0.1181677E-06
  0.4900000E+01 -0.3893400E+03 -0.2247807E+03  0.4204299E+03  0.4492836E+02 -0.7781913E+02  0.6944197E-07
  0.5000000E+01 -0.4829730E+03 -0.2788403E+03  0.3906158E+03  0.5444468E+02 -0.9430171E+02  0.2376276E-06
  0.5100000E+01 -0.4871342E+03 -0.2812439E+03  0.3607875E+03  0.5363825E+02 -0.9290462E+02  0.3561915E-06
  0.5200000E+01 -0.4057899E+03 -0.2342811E+03  0.3333080E+03  0.4318737E+02 -0.7480275E+02  0.4056193E-06
  0.5300000E+01 -0.2588431E+03 -0.1494428E+03  0.3094408E+03  0.2555245E+02 -0.4425788E+02  0.3801937E-06
  0.5400000E+01 -0.7763120E+02 -0.4482139E+02  0.2892209E+03  0.4430944E+01 -0.7674078E+01  0.2884091E-06
  0.5500000E+01  0.1015286E+03  0.5861565E+02  0.2715616E+03 -0.1599606E+02  0.2770660E+02  0.1507298E-06
  0.5600000E+01  0.2444065E+03  0.1411056E+03  0.2545745E+03 -0.3187047E+02  0.5520182E+02 -0.4763036E-08
  0.5700000E+01  0.3252482E+03  0.1877793E+03  0.2360271E+03 -0.4037065E+02  0.6992436E+02 -0.1479597E-06
  0.5800000E+01  0.3312574E+03  0.1912490E+03  0.2138418E+03 -0.4019656E+02  0.6962251E+02 -0.2524241E-06
  0.5900000E+01  0.2644593E+03  0.1526836E+03  0.1865535E+03 -0.3174953E+02  0.5499150E+02 -0.3001808E-06
  0.6000000E+01  0.1406853E+03  0.8122342E+02  0.1536234E+03 -0.1698446E+02  0.2941733E+02 -0.2847134E-06
  0.6100000E+01 -0.1401253E+02 -0.8090868E+01  0.1155671E+03  0.1025221E+01 -0.1776578E+01 -0.2116913E-06
  0.6200000E+01 -0.1687043E+03 -0.9740158E+02  0.7387177E+02  0.1871269E+02 -0.3241225E+02 -0.9740050E-07
  0.6300000E+01 -0.2936462E+03 -0.1695365E+03  0.3073505E+02  0.3271231E+02 -0.5666027E+02  0.3475389E-07
  0.6400000E+01 -0.3658650E+03 -0.2112318E+03 -0.1133112E+02  0.4048735E+02 -0.7012680E+02  0.1589346E-06
  0.6500000E+01 -0.3732405E+03 -0.2154905E+03 -0.4993622E+02  0.4077637E+02 -0.7062711E+02  0.2518236E-06
  0.6600000E+01 -0.3163770E+03 -0.1826607E+03 -0.8321782E+02  0.3378156E+02 -0.5851140E+02  0.2969075E-06
  0.6700000E+01 -0.2079885E+03 -0.1200829E+03 -0.1101294E+03  0.2107304E+02 -0.3649924E+02  0.2873087E-06
  0.6800000E+01 -0.7003593E+02 -0.4043645E+02 -0.1305719E+03  0.5240260E+01 -0.9075790E+01  0.2267097E-06
  0.6900000E+01  0.7078793E+02  0.4086787E+02 -0.1453435E+03 -0.1063731E+02  0.1842509E+02  0.1282488E-06
  0.7000000E+01  0.1882907E+03  0.1087081E+03 -0.1559215E+03 -0.2359095E+02  0.4086150E+02  0.1168237E-07
  0.7100000E+01  0.2617150E+03  0.1510997E+03 -0.1641339E+03 -0.3131961E+02  0.5424780E+02 -0.1005860E-06
  0.7200000E+01  0.2794558E+03  0.1613426E+03 -0.1717759E+03 -0.3259954E+02  0.5646450E+02 -0.1878242E-06
  0.7300000E+01  0.2409169E+03  0.1390925E+03 -0.1802563E+03 -0.2747574E+02  0.4758958E+02 -0.2348180E-06
  0.7400000E+01  0.1562009E+03  0.9018237E+02 -0.1903286E+03 -0.1720531E+02  0.2980043E+02 -0.2345290E-06
  0.7500000E+01  0.4378902E+02  0.2528172E+02 -0.2019688E+03 -0.3973854E+01  0.6882684E+01 -0.1891138E-06
  0.7600000E+01 -0.7327267E+02 -0.4230347E+02 -0.2144037E+03  0.9552604E+01 -0.1654593E+02 -0.1091783E-06
  0.7700000E+01 -0.1719223E+03 -0.9925855E+02 -0.2262881E+03  0.2075132E+02 -0.3594267E+02 -0.1145328E-07
  0.7800000E+01 -0.2334623E+03 -0.1347886E+03 -0.2359859E+03  0.2753871E+02 -0.4769861E+02  0.8458867E-07
  0.7900000E+01 -0.2469480E+03 -0.1425746E+03 -0.2419022E+03  0.2874568E+02 -0.4978894E+02  0.1605206E-06
  0.8000000E+01 -0.2109935E+03 -0.1218164E+03 -0.2428017E+03  0.2430724E+02 -0.4210108E+02  0.2024073E-06
  0.8100000E+01 -0.1336835E+03 -0.7718181E+02 -0.2380436E+03  0.1523407E+02 -0.2638557E+02  0.2032821E-06
  0.8200000E+01 -0.3070954E+02 -0.1772988E+02 -0.2277062E+03  0.3383393E+01 -0.5859421E+01  0.1642178E-06
  0.8300000E+01  0.7788272E+02  0.4496570E+02 -0.2125698E+03 -0.8923918E+01  0.1545756E+02  0.9383515E-07
  0.8400001E+01  0.1716561E+03  0.9910581E+02 -0.1939682E+03 -0.1936069E+02  0.3353453E+02  0.6402933E-08
  0.8500000E+01  0.2336644E+03  0.1349064E+03 -0.1735468E+03 -0.2603421E+02  0.4509322E+02 -0.8106078E-07
  0.8600000E+01  0.2535550E+03  0.1463905E+03 -0.1529673E+03 -0.2783113E+02  0.4820527E+02 -0.1521206E-06
  0.8700000E+01  0.2292864E+03  0.1323792E+03 -0.1336269E+03 -0.2459971E+02  0.4260789E+02 -0.1940054E-06
  0.8800000E+01  0.1672262E+03  0.9654919E+02 -0.1164323E+03 -0.1714531E+02  0.2969608E+02 -0.1999062E-06
  0.8900001E+01  0.8063934E+02  0.4655847E+02 -0.1016825E+03 -0.7043079E+01  0.1219811E+02 -0.1700569E-06
  0.9000000E+01 -0.1307901E+02 -0.7549621E+01 -0.8906657E+02  0.3688843E+01 -0.6390459E+01 -0.1114394E-06
  0.9100000E+01 -0.9585774E+02 -0.5534179E+02 -0.7778112E+02  0.1298866E+02 -0.2249839E+02 -0.3622244E-07
  0.9200000E+01 -0.1523932E+03 -0.8798296E+02 -0.6673410E+02  0.1914298E+02 -0.3315803E+02  0.4072550E-07
  0.9300000E+01 -0.1729777E+03 -0.9986768E+02 -0.5479669E+02  0.2110187E+02 -0.3655079E+02  0.1047634E-06
  0.9400001E+01 -0.1551169E+03 -0.8955621E+02 -0.4105165E+02  0.1865239E+02 -0.3230791E+02  0.1442356E-06
  0.9500000E+01 -0.1037706E+03 -0.5991206E+02 -0.2499510E+02  0.1243155E+02 -0.2153275E+02  0.1525957E-06
  0.9600000E+01 -0.3010581E+02 -0.1738215E+02 -0.6640497E+01  0.3771275E+01 -0.6532356E+01  0.1294496E-06
  0.9700000E+01  0.5082284E+02  0.2934153E+02  0.1346476E+02 -0.5576856E+01  0.9659444E+01  0.8043114E-07
  0.9800000E+01  0.1230967E+03  0.7106841E+02  0.3434447E+02 -0.1379211E+02  0.2388895E+02  0.1590406E-07
  0.9900001E+01  0.1729789E+03  0.9986765E+02  0.5475893E+02 -0.1933194E+02  0.3348441E+02 -0.5116360E-07
  0.1000000E+02  0.1914748E+03  0.1105463E+03  0.7343992E+02 -0.2121818E+02  0.3675155E+02 -0.1077774E-06
