 VARIABLES="Time (s)"
"IRF    1"
Zone t="beta  0.0000000E+00",I=   199,F=POINT
 -0.9800000E+01  0.3348631E+02
 -0.9700000E+01  0.1689693E+00
 -0.9600000E+01 -0.3464478E+02
 -0.9500000E+01 -0.6884947E+02
 -0.9400001E+01 -0.1001747E+03
 -0.9300000E+01 -0.1265260E+03
 -0.9200000E+01 -0.1462712E+03
 -0.9100000E+01 -0.1584034E+03
 -0.9000000E+01 -0.1625130E+03
 -0.8900001E+01 -0.1586146E+03
 -0.8800000E+01 -0.1469462E+03
 -0.8700000E+01 -0.1278297E+03
 -0.8600000E+01 -0.1016819E+03
 -0.8500000E+01 -0.6915836E+02
 -0.8400001E+01 -0.3135842E+02
 -0.8300000E+01  0.1002225E+02
 -0.8200000E+01  0.5269899E+02
 -0.8100000E+01  0.9399416E+02
 -0.8000000E+01  0.1311888E+03
 -0.7900000E+01  0.1618942E+03
 -0.7800000E+01  0.1843425E+03
 -0.7700000E+01  0.1974617E+03
 -0.7600000E+01  0.2007723E+03
 -0.7500000E+01  0.1941599E+03
 -0.7400000E+01  0.1776893E+03
 -0.7300000E+01  0.1515762E+03
 -0.7200000E+01  0.1163426E+03
 -0.7100000E+01  0.7309434E+02
 -0.7000000E+01  0.2373844E+02
 -0.6900000E+01 -0.2900998E+02
 -0.6800000E+01 -0.8188948E+02
 -0.6700000E+01 -0.1315609E+03
 -0.6600000E+01 -0.1750887E+03
 -0.6500000E+01 -0.2102434E+03
 -0.6400000E+01 -0.2355111E+03
 -0.6300000E+01 -0.2498641E+03
 -0.6200000E+01 -0.2524682E+03
 -0.6100000E+01 -0.2425361E+03
 -0.6000000E+01 -0.2194556E+03
 -0.5900000E+01 -0.1831622E+03
 -0.5800000E+01 -0.1345648E+03
 -0.5700000E+01 -0.7580217E+02
 -0.5600000E+01 -0.1016046E+02
 -0.5500000E+01  0.5833918E+02
 -0.5400000E+01  0.1255335E+03
 -0.5300000E+01  0.1876565E+03
 -0.5200000E+01  0.2416322E+03
 -0.5100000E+01  0.2850601E+03
 -0.5000000E+01  0.3159837E+03
 -0.4900000E+01  0.3326277E+03
 -0.4800000E+01  0.3332906E+03
 -0.4700000E+01  0.3164911E+03
 -0.4600000E+01  0.2813508E+03
 -0.4500000E+01  0.2280710E+03
 -0.4400000E+01  0.1583155E+03
 -0.4300000E+01  0.7533202E+02
 -0.4200000E+01 -0.1627387E+02
 -0.4100000E+01 -0.1110775E+03
 -0.4000000E+01 -0.2035175E+03
 -0.3900000E+01 -0.2885178E+03
 -0.3800000E+01 -0.3618279E+03
 -0.3700000E+01 -0.4200059E+03
 -0.3600000E+01 -0.4601169E+03
 -0.3500000E+01 -0.4793798E+03
 -0.3400000E+01 -0.4750463E+03
 -0.3300000E+01 -0.4446829E+03
 -0.3200000E+01 -0.3868235E+03
 -0.3100000E+01 -0.3017502E+03
 -0.3000000E+01 -0.1920213E+03
 -0.2900000E+01 -0.6247252E+02
 -0.2800000E+01  0.8035315E+02
 -0.2700000E+01  0.2291038E+03
 -0.2600000E+01  0.3764612E+03
 -0.2500000E+01  0.5155754E+03
 -0.2400000E+01  0.6399815E+03
 -0.2300000E+01  0.7431496E+03
 -0.2200000E+01  0.8179588E+03
 -0.2100000E+01  0.8563453E+03
 -0.2000000E+01  0.8492238E+03
 -0.1900000E+01  0.7866864E+03
 -0.1800000E+01  0.6586089E+03
 -0.1700000E+01  0.4559716E+03
 -0.1600000E+01  0.1734213E+03
 -0.1500000E+01 -0.1866916E+03
 -0.1400000E+01 -0.6092545E+03
 -0.1300000E+01 -0.1061840E+04
 -0.1200000E+01 -0.1493016E+04
 -0.1100000E+01 -0.1835893E+04
 -0.1000000E+01 -0.2018141E+04
 -0.9000000E+00 -0.1977445E+04
 -0.8000000E+00 -0.1678959E+04
 -0.7000000E+00 -0.1129566E+04
 -0.6000000E+00 -0.3838153E+03
 -0.5000000E+00  0.4616006E+03
 -0.4000000E+00  0.1284555E+04
 -0.3000000E+00  0.1961500E+04
 -0.2000000E+00  0.2392464E+04
 -0.1000000E+00  0.2520394E+04
  0.0000000E+00  0.2340124E+04
  0.1000000E+00  0.1895448E+04
  0.2000000E+00  0.1266329E+04
  0.3000000E+00  0.5505789E+03
  0.4000000E+00 -0.1549075E+03
  0.5000000E+00 -0.7692023E+03
  0.6000000E+00 -0.1236426E+04
  0.7000000E+00 -0.1528586E+04
  0.8000000E+00 -0.1643370E+04
  0.9000000E+00 -0.1598705E+04
  0.1000000E+01 -0.1425926E+04
  0.1100000E+01 -0.1162892E+04
  0.1200000E+01 -0.8480467E+03
  0.1300000E+01 -0.5159393E+03
  0.1400000E+01 -0.1945175E+03
  0.1500000E+01  0.9586021E+02
  0.1600000E+01  0.3419804E+03
  0.1700000E+01  0.5364595E+03
  0.1800000E+01  0.6761779E+03
  0.1900000E+01  0.7610114E+03
  0.2000000E+01  0.7930938E+03
  0.2100000E+01  0.7765625E+03
  0.2200000E+01  0.7174927E+03
  0.2300000E+01  0.6237089E+03
  0.2400000E+01  0.5042815E+03
  0.2500000E+01  0.3687448E+03
  0.2600000E+01  0.2262209E+03
  0.2700000E+01  0.8472321E+02
  0.2800000E+01 -0.4919181E+02
  0.2900000E+01 -0.1703848E+03
  0.3000000E+01 -0.2748305E+03
  0.3100000E+01 -0.3592682E+03
  0.3200000E+01 -0.4209917E+03
  0.3300000E+01 -0.4579152E+03
  0.3400000E+01 -0.4688739E+03
  0.3500000E+01 -0.4540376E+03
  0.3600000E+01 -0.4152196E+03
  0.3700000E+01 -0.3559093E+03
  0.3800000E+01 -0.2809398E+03
  0.3900000E+01 -0.1958582E+03
  0.4000000E+01 -0.1061970E+03
  0.4100000E+01 -0.1687986E+02
  0.4200000E+01  0.6805049E+02
  0.4300000E+01  0.1453497E+03
  0.4400000E+01  0.2122746E+03
  0.4500000E+01  0.2662924E+03
  0.4600000E+01  0.3050226E+03
  0.4700000E+01  0.3264879E+03
  0.4800000E+01  0.3295727E+03
  0.4900000E+01  0.3144578E+03
  0.5000000E+01  0.2827975E+03
  0.5100000E+01  0.2375136E+03
  0.5200000E+01  0.1822732E+03
  0.5300000E+01  0.1208606E+03
  0.5400000E+01  0.5670277E+02
  0.5500000E+01 -0.7297639E+01
  0.5600000E+01 -0.6862206E+02
  0.5700000E+01 -0.1248627E+03
  0.5800000E+01 -0.1735278E+03
  0.5900000E+01 -0.2120941E+03
  0.6000000E+01 -0.2383221E+03
  0.6100000E+01 -0.2507003E+03
  0.6200000E+01 -0.2488152E+03
  0.6300000E+01 -0.2334689E+03
  0.6400000E+01 -0.2064847E+03
  0.6500000E+01 -0.1702928E+03
  0.6600000E+01 -0.1274628E+03
  0.6700000E+01 -0.8037115E+02
  0.6800000E+01 -0.3110588E+02
  0.6900000E+01  0.1840237E+02
  0.7000000E+01  0.6615611E+02
  0.7100000E+01  0.1099303E+03
  0.7200000E+01  0.1473135E+03
  0.7300000E+01  0.1759717E+03
  0.7400000E+01  0.1940531E+03
  0.7500000E+01  0.2005790E+03
  0.7600000E+01  0.1956453E+03
  0.7700000E+01  0.1803552E+03
  0.7800000E+01  0.1565047E+03
  0.7900000E+01  0.1261464E+03
  0.8000000E+01  0.9122339E+02
  0.8100000E+01  0.5338795E+02
  0.8200000E+01  0.1407771E+02
  0.8300000E+01 -0.2527497E+02
  0.8400001E+01 -0.6301259E+02
  0.8500000E+01 -0.9719716E+02
  0.8600000E+01 -0.1257615E+03
  0.8700000E+01 -0.1468478E+03
  0.8800000E+01 -0.1591695E+03
  0.8900001E+01 -0.1622551E+03
  0.9000000E+01 -0.1564679E+03
  0.9100000E+01 -0.1428040E+03
  0.9200000E+01 -0.1225977E+03
  0.9300000E+01 -0.9723682E+02
  0.9400001E+01 -0.6804227E+02
  0.9500000E+01 -0.3628971E+02
  0.9600000E+01 -0.3322404E+01
  0.9700000E+01  0.2933946E+02
  0.9800000E+01  0.6001563E+02
  0.9900001E+01  0.8698599E+02
  0.1000000E+02  0.1087118E+03
