 VARIABLES="X" "Y" "Z" "abs(p) (Pa)" "angle(p) (rad)"
ZONE N=    528,E =     462, F=FEPOINT, ET=QUADRILATERAL
  0.479746491      0.140866295       0.00000000       273.093567       2.58184433    
  0.500000000       0.00000000       0.00000000       273.093567       2.58184433    
  0.500000000       0.00000000      -8.18181783E-02   273.093567       2.58184433    
  0.479746491      0.140866295      -8.18181783E-02   273.093567       2.58184433    
  0.420626789      0.270320386       0.00000000       273.093781       2.58184552    
  0.479746491      0.140866295       0.00000000       273.093781       2.58184552    
  0.479746491      0.140866295      -8.18181783E-02   273.093781       2.58184552    
  0.420626789      0.270320386      -8.18181783E-02   273.093781       2.58184552    
  0.327430397      0.377874792       0.00000000       273.093658       2.58184457    
  0.420626789      0.270320386       0.00000000       273.093658       2.58184457    
  0.420626789      0.270320386      -8.18181783E-02   273.093658       2.58184457    
  0.327430397      0.377874792      -8.18181783E-02   273.093658       2.58184457    
  0.207707494      0.454816014       0.00000000       273.093628       2.58184457    
  0.327430397      0.377874792       0.00000000       273.093628       2.58184457    
  0.327430397      0.377874792      -8.18181783E-02   273.093628       2.58184457    
  0.207707494      0.454816014      -8.18181783E-02   273.093628       2.58184457    
   7.11574182E-02  0.494910687       0.00000000       273.093781       2.58184409    
  0.207707494      0.454816014       0.00000000       273.093781       2.58184409    
  0.207707494      0.454816014      -8.18181783E-02   273.093781       2.58184409    
   7.11574182E-02  0.494910687      -8.18181783E-02   273.093781       2.58184409    
  -7.11574182E-02  0.494910687       0.00000000       273.093689       2.58184385    
   7.11574182E-02  0.494910687       0.00000000       273.093689       2.58184385    
   7.11574182E-02  0.494910687      -8.18181783E-02   273.093689       2.58184385    
  -7.11574182E-02  0.494910687      -8.18181783E-02   273.093689       2.58184385    
 -0.207707494      0.454816014       0.00000000       273.093536       2.58184409    
  -7.11574182E-02  0.494910687       0.00000000       273.093536       2.58184409    
  -7.11574182E-02  0.494910687      -8.18181783E-02   273.093536       2.58184409    
 -0.207707494      0.454816014      -8.18181783E-02   273.093536       2.58184409    
 -0.327430397      0.377874792       0.00000000       273.093597       2.58184433    
 -0.207707494      0.454816014       0.00000000       273.093597       2.58184433    
 -0.207707494      0.454816014      -8.18181783E-02   273.093597       2.58184433    
 -0.327430397      0.377874792      -8.18181783E-02   273.093597       2.58184433    
 -0.420626789      0.270320386       0.00000000       273.093567       2.58184433    
 -0.327430397      0.377874792       0.00000000       273.093567       2.58184433    
 -0.327430397      0.377874792      -8.18181783E-02   273.093567       2.58184433    
 -0.420626789      0.270320386      -8.18181783E-02   273.093567       2.58184433    
 -0.479746491      0.140866295       0.00000000       273.093811       2.58184433    
 -0.420626789      0.270320386       0.00000000       273.093811       2.58184433    
 -0.420626789      0.270320386      -8.18181783E-02   273.093811       2.58184433    
 -0.479746491      0.140866295      -8.18181783E-02   273.093811       2.58184433    
 -0.500000000       2.84000009E-16   0.00000000       273.093689       2.58184457    
 -0.479746491      0.140866295       0.00000000       273.093689       2.58184457    
 -0.479746491      0.140866295      -8.18181783E-02   273.093689       2.58184457    
 -0.500000000       2.84000009E-16  -8.18181783E-02   273.093689       2.58184457    
  0.479746491      0.140866295      -8.18181783E-02   270.473907       2.57508111    
  0.500000000       0.00000000      -8.18181783E-02   270.473907       2.57508111    
  0.500000000       0.00000000     -0.163636401       270.473907       2.57508111    
  0.479746491      0.140866295     -0.163636401       270.473907       2.57508111    
  0.420626789      0.270320386      -8.18181783E-02   270.473755       2.57508087    
  0.479746491      0.140866295      -8.18181783E-02   270.473755       2.57508087    
  0.479746491      0.140866295     -0.163636401       270.473755       2.57508087    
  0.420626789      0.270320386     -0.163636401       270.473755       2.57508087    
  0.327430397      0.377874792      -8.18181783E-02   270.473816       2.57508087    
  0.420626789      0.270320386      -8.18181783E-02   270.473816       2.57508087    
  0.420626789      0.270320386     -0.163636401       270.473816       2.57508087    
  0.327430397      0.377874792     -0.163636401       270.473816       2.57508087    
  0.207707494      0.454816014      -8.18181783E-02   270.473816       2.57508087    
  0.327430397      0.377874792      -8.18181783E-02   270.473816       2.57508087    
  0.327430397      0.377874792     -0.163636401       270.473816       2.57508087    
  0.207707494      0.454816014     -0.163636401       270.473816       2.57508087    
   7.11574182E-02  0.494910687      -8.18181783E-02   270.473785       2.57508135    
  0.207707494      0.454816014      -8.18181783E-02   270.473785       2.57508135    
  0.207707494      0.454816014     -0.163636401       270.473785       2.57508135    
   7.11574182E-02  0.494910687     -0.163636401       270.473785       2.57508135    
  -7.11574182E-02  0.494910687      -8.18181783E-02   270.473663       2.57508135    
   7.11574182E-02  0.494910687      -8.18181783E-02   270.473663       2.57508135    
   7.11574182E-02  0.494910687     -0.163636401       270.473663       2.57508135    
  -7.11574182E-02  0.494910687     -0.163636401       270.473663       2.57508135    
 -0.207707494      0.454816014      -8.18181783E-02   270.473724       2.57508135    
  -7.11574182E-02  0.494910687      -8.18181783E-02   270.473724       2.57508135    
  -7.11574182E-02  0.494910687     -0.163636401       270.473724       2.57508135    
 -0.207707494      0.454816014     -0.163636401       270.473724       2.57508135    
 -0.327430397      0.377874792      -8.18181783E-02   270.473755       2.57508135    
 -0.207707494      0.454816014      -8.18181783E-02   270.473755       2.57508135    
 -0.207707494      0.454816014     -0.163636401       270.473755       2.57508135    
 -0.327430397      0.377874792     -0.163636401       270.473755       2.57508135    
 -0.420626789      0.270320386      -8.18181783E-02   270.473877       2.57508135    
 -0.327430397      0.377874792      -8.18181783E-02   270.473877       2.57508135    
 -0.327430397      0.377874792     -0.163636401       270.473877       2.57508135    
 -0.420626789      0.270320386     -0.163636401       270.473877       2.57508135    
 -0.479746491      0.140866295      -8.18181783E-02   270.473602       2.57508087    
 -0.420626789      0.270320386      -8.18181783E-02   270.473602       2.57508087    
 -0.420626789      0.270320386     -0.163636401       270.473602       2.57508087    
 -0.479746491      0.140866295     -0.163636401       270.473602       2.57508087    
 -0.500000000       2.84000009E-16  -8.18181783E-02   270.473755       2.57508135    
 -0.479746491      0.140866295      -8.18181783E-02   270.473755       2.57508135    
 -0.479746491      0.140866295     -0.163636401       270.473755       2.57508135    
 -0.500000000       2.84000009E-16 -0.163636401       270.473755       2.57508135    
  0.479746491      0.140866295     -0.163636401       269.420349       2.56135821    
  0.500000000       0.00000000     -0.163636401       269.420349       2.56135821    
  0.500000000       0.00000000     -0.245454505       269.420349       2.56135821    
  0.479746491      0.140866295     -0.245454505       269.420349       2.56135821    
  0.420626789      0.270320386     -0.163636401       269.420380       2.56135821    
  0.479746491      0.140866295     -0.163636401       269.420380       2.56135821    
  0.479746491      0.140866295     -0.245454505       269.420380       2.56135821    
  0.420626789      0.270320386     -0.245454505       269.420380       2.56135821    
  0.327430397      0.377874792     -0.163636401       269.420349       2.56135845    
  0.420626789      0.270320386     -0.163636401       269.420349       2.56135845    
  0.420626789      0.270320386     -0.245454505       269.420349       2.56135845    
  0.327430397      0.377874792     -0.245454505       269.420349       2.56135845    
  0.207707494      0.454816014     -0.163636401       269.420502       2.56135750    
  0.327430397      0.377874792     -0.163636401       269.420502       2.56135750    
  0.327430397      0.377874792     -0.245454505       269.420502       2.56135750    
  0.207707494      0.454816014     -0.245454505       269.420502       2.56135750    
   7.11574182E-02  0.494910687     -0.163636401       269.420380       2.56135774    
  0.207707494      0.454816014     -0.163636401       269.420380       2.56135774    
  0.207707494      0.454816014     -0.245454505       269.420380       2.56135774    
   7.11574182E-02  0.494910687     -0.245454505       269.420380       2.56135774    
  -7.11574182E-02  0.494910687     -0.163636401       269.420319       2.56135750    
   7.11574182E-02  0.494910687     -0.163636401       269.420319       2.56135750    
   7.11574182E-02  0.494910687     -0.245454505       269.420319       2.56135750    
  -7.11574182E-02  0.494910687     -0.245454505       269.420319       2.56135750    
 -0.207707494      0.454816014     -0.163636401       269.420441       2.56135774    
  -7.11574182E-02  0.494910687     -0.163636401       269.420441       2.56135774    
  -7.11574182E-02  0.494910687     -0.245454505       269.420441       2.56135774    
 -0.207707494      0.454816014     -0.245454505       269.420441       2.56135774    
 -0.327430397      0.377874792     -0.163636401       269.420410       2.56135821    
 -0.207707494      0.454816014     -0.163636401       269.420410       2.56135821    
 -0.207707494      0.454816014     -0.245454505       269.420410       2.56135821    
 -0.327430397      0.377874792     -0.245454505       269.420410       2.56135821    
 -0.420626789      0.270320386     -0.163636401       269.420288       2.56135845    
 -0.327430397      0.377874792     -0.163636401       269.420288       2.56135845    
 -0.327430397      0.377874792     -0.245454505       269.420288       2.56135845    
 -0.420626789      0.270320386     -0.245454505       269.420288       2.56135845    
 -0.479746491      0.140866295     -0.163636401       269.420197       2.56135798    
 -0.420626789      0.270320386     -0.163636401       269.420197       2.56135798    
 -0.420626789      0.270320386     -0.245454505       269.420197       2.56135798    
 -0.479746491      0.140866295     -0.245454505       269.420197       2.56135798    
 -0.500000000       2.84000009E-16 -0.163636401       269.420319       2.56135821    
 -0.479746491      0.140866295     -0.163636401       269.420319       2.56135821    
 -0.479746491      0.140866295     -0.245454505       269.420319       2.56135821    
 -0.500000000       2.84000009E-16 -0.245454505       269.420319       2.56135821    
  0.479746491      0.140866295     -0.245454505       270.147522       2.54005194    
  0.500000000       0.00000000     -0.245454505       270.147522       2.54005194    
  0.500000000       0.00000000     -0.327272713       270.147522       2.54005194    
  0.479746491      0.140866295     -0.327272713       270.147522       2.54005194    
  0.420626789      0.270320386     -0.245454505       270.147522       2.54005218    
  0.479746491      0.140866295     -0.245454505       270.147522       2.54005218    
  0.479746491      0.140866295     -0.327272713       270.147522       2.54005218    
  0.420626789      0.270320386     -0.327272713       270.147522       2.54005218    
  0.327430397      0.377874792     -0.245454505       270.147491       2.54005170    
  0.420626789      0.270320386     -0.245454505       270.147491       2.54005170    
  0.420626789      0.270320386     -0.327272713       270.147491       2.54005170    
  0.327430397      0.377874792     -0.327272713       270.147491       2.54005170    
  0.207707494      0.454816014     -0.245454505       270.147522       2.54005122    
  0.327430397      0.377874792     -0.245454505       270.147522       2.54005122    
  0.327430397      0.377874792     -0.327272713       270.147522       2.54005122    
  0.207707494      0.454816014     -0.327272713       270.147522       2.54005122    
   7.11574182E-02  0.494910687     -0.245454505       270.147614       2.54005194    
  0.207707494      0.454816014     -0.245454505       270.147614       2.54005194    
  0.207707494      0.454816014     -0.327272713       270.147614       2.54005194    
   7.11574182E-02  0.494910687     -0.327272713       270.147614       2.54005194    
  -7.11574182E-02  0.494910687     -0.245454505       270.147430       2.54005146    
   7.11574182E-02  0.494910687     -0.245454505       270.147430       2.54005146    
   7.11574182E-02  0.494910687     -0.327272713       270.147430       2.54005146    
  -7.11574182E-02  0.494910687     -0.327272713       270.147430       2.54005146    
 -0.207707494      0.454816014     -0.245454505       270.147491       2.54005146    
  -7.11574182E-02  0.494910687     -0.245454505       270.147491       2.54005146    
  -7.11574182E-02  0.494910687     -0.327272713       270.147491       2.54005146    
 -0.207707494      0.454816014     -0.327272713       270.147491       2.54005146    
 -0.327430397      0.377874792     -0.245454505       270.147552       2.54005122    
 -0.207707494      0.454816014     -0.245454505       270.147552       2.54005122    
 -0.207707494      0.454816014     -0.327272713       270.147552       2.54005122    
 -0.327430397      0.377874792     -0.327272713       270.147552       2.54005122    
 -0.420626789      0.270320386     -0.245454505       270.147400       2.54005170    
 -0.327430397      0.377874792     -0.245454505       270.147400       2.54005170    
 -0.327430397      0.377874792     -0.327272713       270.147400       2.54005170    
 -0.420626789      0.270320386     -0.327272713       270.147400       2.54005170    
 -0.479746491      0.140866295     -0.245454505       270.147491       2.54005170    
 -0.420626789      0.270320386     -0.245454505       270.147491       2.54005170    
 -0.420626789      0.270320386     -0.327272713       270.147491       2.54005170    
 -0.479746491      0.140866295     -0.327272713       270.147491       2.54005170    
 -0.500000000       2.84000009E-16 -0.245454505       270.147491       2.54005170    
 -0.479746491      0.140866295     -0.245454505       270.147491       2.54005170    
 -0.479746491      0.140866295     -0.327272713       270.147491       2.54005170    
 -0.500000000       2.84000009E-16 -0.327272713       270.147491       2.54005170    
  0.479746491      0.140866295     -0.327272713       272.995361       2.51055312    
  0.500000000       0.00000000     -0.327272713       272.995361       2.51055312    
  0.500000000       0.00000000     -0.409090906       272.995361       2.51055312    
  0.479746491      0.140866295     -0.409090906       272.995361       2.51055312    
  0.420626789      0.270320386     -0.327272713       272.995422       2.51055241    
  0.479746491      0.140866295     -0.327272713       272.995422       2.51055241    
  0.479746491      0.140866295     -0.409090906       272.995422       2.51055241    
  0.420626789      0.270320386     -0.409090906       272.995422       2.51055241    
  0.327430397      0.377874792     -0.327272713       272.995392       2.51055312    
  0.420626789      0.270320386     -0.327272713       272.995392       2.51055312    
  0.420626789      0.270320386     -0.409090906       272.995392       2.51055312    
  0.327430397      0.377874792     -0.409090906       272.995392       2.51055312    
  0.207707494      0.454816014     -0.327272713       272.995453       2.51055217    
  0.327430397      0.377874792     -0.327272713       272.995453       2.51055217    
  0.327430397      0.377874792     -0.409090906       272.995453       2.51055217    
  0.207707494      0.454816014     -0.409090906       272.995453       2.51055217    
   7.11574182E-02  0.494910687     -0.327272713       272.995361       2.51055288    
  0.207707494      0.454816014     -0.327272713       272.995361       2.51055288    
  0.207707494      0.454816014     -0.409090906       272.995361       2.51055288    
   7.11574182E-02  0.494910687     -0.409090906       272.995361       2.51055288    
  -7.11574182E-02  0.494910687     -0.327272713       272.995239       2.51055193    
   7.11574182E-02  0.494910687     -0.327272713       272.995239       2.51055193    
   7.11574182E-02  0.494910687     -0.409090906       272.995239       2.51055193    
  -7.11574182E-02  0.494910687     -0.409090906       272.995239       2.51055193    
 -0.207707494      0.454816014     -0.327272713       272.995361       2.51055241    
  -7.11574182E-02  0.494910687     -0.327272713       272.995361       2.51055241    
  -7.11574182E-02  0.494910687     -0.409090906       272.995361       2.51055241    
 -0.207707494      0.454816014     -0.409090906       272.995361       2.51055241    
 -0.327430397      0.377874792     -0.327272713       272.995575       2.51055193    
 -0.207707494      0.454816014     -0.327272713       272.995575       2.51055193    
 -0.207707494      0.454816014     -0.409090906       272.995575       2.51055193    
 -0.327430397      0.377874792     -0.409090906       272.995575       2.51055193    
 -0.420626789      0.270320386     -0.327272713       272.995422       2.51055241    
 -0.327430397      0.377874792     -0.327272713       272.995422       2.51055241    
 -0.327430397      0.377874792     -0.409090906       272.995422       2.51055241    
 -0.420626789      0.270320386     -0.409090906       272.995422       2.51055241    
 -0.479746491      0.140866295     -0.327272713       272.995544       2.51055264    
 -0.420626789      0.270320386     -0.327272713       272.995544       2.51055264    
 -0.420626789      0.270320386     -0.409090906       272.995544       2.51055264    
 -0.479746491      0.140866295     -0.409090906       272.995544       2.51055264    
 -0.500000000       2.84000009E-16 -0.327272713       272.995361       2.51055264    
 -0.479746491      0.140866295     -0.327272713       272.995361       2.51055264    
 -0.479746491      0.140866295     -0.409090906       272.995361       2.51055264    
 -0.500000000       2.84000009E-16 -0.409090906       272.995361       2.51055264    
  0.479746491      0.140866295     -0.409090906       278.458771       2.47239757    
  0.500000000       0.00000000     -0.409090906       278.458771       2.47239757    
  0.500000000       0.00000000     -0.490909100       278.458771       2.47239757    
  0.479746491      0.140866295     -0.490909100       278.458771       2.47239757    
  0.420626789      0.270320386     -0.409090906       278.458801       2.47239804    
  0.479746491      0.140866295     -0.409090906       278.458801       2.47239804    
  0.479746491      0.140866295     -0.490909100       278.458801       2.47239804    
  0.420626789      0.270320386     -0.490909100       278.458801       2.47239804    
  0.327430397      0.377874792     -0.409090906       278.458923       2.47239733    
  0.420626789      0.270320386     -0.409090906       278.458923       2.47239733    
  0.420626789      0.270320386     -0.490909100       278.458923       2.47239733    
  0.327430397      0.377874792     -0.490909100       278.458923       2.47239733    
  0.207707494      0.454816014     -0.409090906       278.458771       2.47239733    
  0.327430397      0.377874792     -0.409090906       278.458771       2.47239733    
  0.327430397      0.377874792     -0.490909100       278.458771       2.47239733    
  0.207707494      0.454816014     -0.490909100       278.458771       2.47239733    
   7.11574182E-02  0.494910687     -0.409090906       278.458771       2.47239661    
  0.207707494      0.454816014     -0.409090906       278.458771       2.47239661    
  0.207707494      0.454816014     -0.490909100       278.458771       2.47239661    
   7.11574182E-02  0.494910687     -0.490909100       278.458771       2.47239661    
  -7.11574182E-02  0.494910687     -0.409090906       278.458740       2.47239757    
   7.11574182E-02  0.494910687     -0.409090906       278.458740       2.47239757    
   7.11574182E-02  0.494910687     -0.490909100       278.458740       2.47239757    
  -7.11574182E-02  0.494910687     -0.490909100       278.458740       2.47239757    
 -0.207707494      0.454816014     -0.409090906       278.458771       2.47239614    
  -7.11574182E-02  0.494910687     -0.409090906       278.458771       2.47239614    
  -7.11574182E-02  0.494910687     -0.490909100       278.458771       2.47239614    
 -0.207707494      0.454816014     -0.490909100       278.458771       2.47239614    
 -0.327430397      0.377874792     -0.409090906       278.458710       2.47239757    
 -0.207707494      0.454816014     -0.409090906       278.458710       2.47239757    
 -0.207707494      0.454816014     -0.490909100       278.458710       2.47239757    
 -0.327430397      0.377874792     -0.490909100       278.458710       2.47239757    
 -0.420626789      0.270320386     -0.409090906       278.458832       2.47239733    
 -0.327430397      0.377874792     -0.409090906       278.458832       2.47239733    
 -0.327430397      0.377874792     -0.490909100       278.458832       2.47239733    
 -0.420626789      0.270320386     -0.490909100       278.458832       2.47239733    
 -0.479746491      0.140866295     -0.409090906       278.458679       2.47239733    
 -0.420626789      0.270320386     -0.409090906       278.458679       2.47239733    
 -0.420626789      0.270320386     -0.490909100       278.458679       2.47239733    
 -0.479746491      0.140866295     -0.490909100       278.458679       2.47239733    
 -0.500000000       2.84000009E-16 -0.409090906       278.458679       2.47239757    
 -0.479746491      0.140866295     -0.409090906       278.458679       2.47239757    
 -0.479746491      0.140866295     -0.490909100       278.458679       2.47239757    
 -0.500000000       2.84000009E-16 -0.490909100       278.458679       2.47239757    
  0.479746491      0.140866295     -0.490909100       287.590332       2.42399597    
  0.500000000       0.00000000     -0.490909100       287.590332       2.42399597    
  0.500000000       0.00000000     -0.572727323       287.590332       2.42399597    
  0.479746491      0.140866295     -0.572727323       287.590332       2.42399597    
  0.420626789      0.270320386     -0.490909100       287.590454       2.42399573    
  0.479746491      0.140866295     -0.490909100       287.590454       2.42399573    
  0.479746491      0.140866295     -0.572727323       287.590454       2.42399573    
  0.420626789      0.270320386     -0.572727323       287.590454       2.42399573    
  0.327430397      0.377874792     -0.490909100       287.590393       2.42399573    
  0.420626789      0.270320386     -0.490909100       287.590393       2.42399573    
  0.420626789      0.270320386     -0.572727323       287.590393       2.42399573    
  0.327430397      0.377874792     -0.572727323       287.590393       2.42399573    
  0.207707494      0.454816014     -0.490909100       287.590424       2.42399621    
  0.327430397      0.377874792     -0.490909100       287.590424       2.42399621    
  0.327430397      0.377874792     -0.572727323       287.590424       2.42399621    
  0.207707494      0.454816014     -0.572727323       287.590424       2.42399621    
   7.11574182E-02  0.494910687     -0.490909100       287.590454       2.42399597    
  0.207707494      0.454816014     -0.490909100       287.590454       2.42399597    
  0.207707494      0.454816014     -0.572727323       287.590454       2.42399597    
   7.11574182E-02  0.494910687     -0.572727323       287.590454       2.42399597    
  -7.11574182E-02  0.494910687     -0.490909100       287.590149       2.42399573    
   7.11574182E-02  0.494910687     -0.490909100       287.590149       2.42399573    
   7.11574182E-02  0.494910687     -0.572727323       287.590149       2.42399573    
  -7.11574182E-02  0.494910687     -0.572727323       287.590149       2.42399573    
 -0.207707494      0.454816014     -0.490909100       287.590240       2.42399526    
  -7.11574182E-02  0.494910687     -0.490909100       287.590240       2.42399526    
  -7.11574182E-02  0.494910687     -0.572727323       287.590240       2.42399526    
 -0.207707494      0.454816014     -0.572727323       287.590240       2.42399526    
 -0.327430397      0.377874792     -0.490909100       287.590302       2.42399549    
 -0.207707494      0.454816014     -0.490909100       287.590302       2.42399549    
 -0.207707494      0.454816014     -0.572727323       287.590302       2.42399549    
 -0.327430397      0.377874792     -0.572727323       287.590302       2.42399549    
 -0.420626789      0.270320386     -0.490909100       287.590210       2.42399573    
 -0.327430397      0.377874792     -0.490909100       287.590210       2.42399573    
 -0.327430397      0.377874792     -0.572727323       287.590210       2.42399573    
 -0.420626789      0.270320386     -0.572727323       287.590210       2.42399573    
 -0.479746491      0.140866295     -0.490909100       287.590302       2.42399597    
 -0.420626789      0.270320386     -0.490909100       287.590302       2.42399597    
 -0.420626789      0.270320386     -0.572727323       287.590302       2.42399597    
 -0.479746491      0.140866295     -0.572727323       287.590302       2.42399597    
 -0.500000000       2.84000009E-16 -0.490909100       287.590454       2.42399573    
 -0.479746491      0.140866295     -0.490909100       287.590454       2.42399573    
 -0.479746491      0.140866295     -0.572727323       287.590454       2.42399573    
 -0.500000000       2.84000009E-16 -0.572727323       287.590454       2.42399573    
  0.479746491      0.140866295     -0.572727323       302.307861       2.36301351    
  0.500000000       0.00000000     -0.572727323       302.307861       2.36301351    
  0.500000000       0.00000000     -0.654545426       302.307861       2.36301351    
  0.479746491      0.140866295     -0.654545426       302.307861       2.36301351    
  0.420626789      0.270320386     -0.572727323       302.307861       2.36301279    
  0.479746491      0.140866295     -0.572727323       302.307861       2.36301279    
  0.479746491      0.140866295     -0.654545426       302.307861       2.36301279    
  0.420626789      0.270320386     -0.654545426       302.307861       2.36301279    
  0.327430397      0.377874792     -0.572727323       302.307892       2.36301279    
  0.420626789      0.270320386     -0.572727323       302.307892       2.36301279    
  0.420626789      0.270320386     -0.654545426       302.307892       2.36301279    
  0.327430397      0.377874792     -0.654545426       302.307892       2.36301279    
  0.207707494      0.454816014     -0.572727323       302.307800       2.36301255    
  0.327430397      0.377874792     -0.572727323       302.307800       2.36301255    
  0.327430397      0.377874792     -0.654545426       302.307800       2.36301255    
  0.207707494      0.454816014     -0.654545426       302.307800       2.36301255    
   7.11574182E-02  0.494910687     -0.572727323       302.307770       2.36301279    
  0.207707494      0.454816014     -0.572727323       302.307770       2.36301279    
  0.207707494      0.454816014     -0.654545426       302.307770       2.36301279    
   7.11574182E-02  0.494910687     -0.654545426       302.307770       2.36301279    
  -7.11574182E-02  0.494910687     -0.572727323       302.307800       2.36301279    
   7.11574182E-02  0.494910687     -0.572727323       302.307800       2.36301279    
   7.11574182E-02  0.494910687     -0.654545426       302.307800       2.36301279    
  -7.11574182E-02  0.494910687     -0.654545426       302.307800       2.36301279    
 -0.207707494      0.454816014     -0.572727323       302.307861       2.36301255    
  -7.11574182E-02  0.494910687     -0.572727323       302.307861       2.36301255    
  -7.11574182E-02  0.494910687     -0.654545426       302.307861       2.36301255    
 -0.207707494      0.454816014     -0.654545426       302.307861       2.36301255    
 -0.327430397      0.377874792     -0.572727323       302.307800       2.36301303    
 -0.207707494      0.454816014     -0.572727323       302.307800       2.36301303    
 -0.207707494      0.454816014     -0.654545426       302.307800       2.36301303    
 -0.327430397      0.377874792     -0.654545426       302.307800       2.36301303    
 -0.420626789      0.270320386     -0.572727323       302.307709       2.36301255    
 -0.327430397      0.377874792     -0.572727323       302.307709       2.36301255    
 -0.327430397      0.377874792     -0.654545426       302.307709       2.36301255    
 -0.420626789      0.270320386     -0.654545426       302.307709       2.36301255    
 -0.479746491      0.140866295     -0.572727323       302.307770       2.36301351    
 -0.420626789      0.270320386     -0.572727323       302.307770       2.36301351    
 -0.420626789      0.270320386     -0.654545426       302.307770       2.36301351    