 VARIABLES="X" "Y" "Z" "abs(p) (Pa)" "angle(p) (rad)"
ZONE N=    528,E =     462, F=FEPOINT, ET=QUADRILATERAL
  0.479746491      0.140866295       0.00000000       417.027313      -1.54764426    
  0.500000000       0.00000000       0.00000000       417.027313      -1.54764426    
  0.500000000       0.00000000      -8.18181783E-02   417.027313      -1.54764426    
  0.479746491      0.140866295      -8.18181783E-02   417.027313      -1.54764426    
  0.420626789      0.270320386       0.00000000       383.242065      -1.54764426    
  0.479746491      0.140866295       0.00000000       383.242065      -1.54764426    
  0.479746491      0.140866295      -8.18181783E-02   383.242065      -1.54764426    
  0.420626789      0.270320386      -8.18181783E-02   383.242065      -1.54764426    
  0.327430397      0.377874792       0.00000000       318.408997      -1.54764426    
  0.420626789      0.270320386       0.00000000       318.408997      -1.54764426    
  0.420626789      0.270320386      -8.18181783E-02   318.408997      -1.54764426    
  0.327430397      0.377874792      -8.18181783E-02   318.408997      -1.54764426    
  0.207707494      0.454816014       0.00000000       227.780243      -1.54764426    
  0.327430397      0.377874792       0.00000000       227.780243      -1.54764426    
  0.327430397      0.377874792      -8.18181783E-02   227.780243      -1.54764426    
  0.207707494      0.454816014      -8.18181783E-02   227.780243      -1.54764426    
   7.11574182E-02  0.494910687       0.00000000       118.698311      -1.54764402    
  0.207707494      0.454816014       0.00000000       118.698311      -1.54764402    
  0.207707494      0.454816014      -8.18181783E-02   118.698311      -1.54764402    
   7.11574182E-02  0.494910687      -8.18181783E-02   118.698311      -1.54764402    
  -7.11574182E-02  0.494910687       0.00000000       3.97666881E-05 -0.558052063    
   7.11574182E-02  0.494910687       0.00000000       3.97666881E-05 -0.558052063    
   7.11574182E-02  0.494910687      -8.18181783E-02   3.97666881E-05 -0.558052063    
  -7.11574182E-02  0.494910687      -8.18181783E-02   3.97666881E-05 -0.558052063    
 -0.207707494      0.454816014       0.00000000       118.698235       1.59394813    
  -7.11574182E-02  0.494910687       0.00000000       118.698235       1.59394813    
  -7.11574182E-02  0.494910687      -8.18181783E-02   118.698235       1.59394813    
 -0.207707494      0.454816014      -8.18181783E-02   118.698235       1.59394813    
 -0.327430397      0.377874792       0.00000000       227.780151       1.59394825    
 -0.207707494      0.454816014       0.00000000       227.780151       1.59394825    
 -0.207707494      0.454816014      -8.18181783E-02   227.780151       1.59394825    
 -0.327430397      0.377874792      -8.18181783E-02   227.780151       1.59394825    
 -0.420626789      0.270320386       0.00000000       318.408966       1.59394825    
 -0.327430397      0.377874792       0.00000000       318.408966       1.59394825    
 -0.327430397      0.377874792      -8.18181783E-02   318.408966       1.59394825    
 -0.420626789      0.270320386      -8.18181783E-02   318.408966       1.59394825    
 -0.479746491      0.140866295       0.00000000       383.242004       1.59394825    
 -0.420626789      0.270320386       0.00000000       383.242004       1.59394825    
 -0.420626789      0.270320386      -8.18181783E-02   383.242004       1.59394825    
 -0.479746491      0.140866295      -8.18181783E-02   383.242004       1.59394825    
 -0.500000000       2.84000009E-16   0.00000000       417.027252       1.59394825    
 -0.479746491      0.140866295       0.00000000       417.027252       1.59394825    
 -0.479746491      0.140866295      -8.18181783E-02   417.027252       1.59394825    
 -0.500000000       2.84000009E-16  -8.18181783E-02   417.027252       1.59394825    
  0.479746491      0.140866295      -8.18181783E-02   415.224823      -1.54766238    
  0.500000000       0.00000000      -8.18181783E-02   415.224823      -1.54766238    
  0.500000000       0.00000000     -0.163636401       415.224823      -1.54766238    
  0.479746491      0.140866295     -0.163636401       415.224823      -1.54766238    
  0.420626789      0.270320386      -8.18181783E-02   381.585815      -1.54766238    
  0.479746491      0.140866295      -8.18181783E-02   381.585815      -1.54766238    
  0.479746491      0.140866295     -0.163636401       381.585815      -1.54766238    
  0.420626789      0.270320386     -0.163636401       381.585815      -1.54766238    
  0.327430397      0.377874792      -8.18181783E-02   317.032776      -1.54766238    
  0.420626789      0.270320386      -8.18181783E-02   317.032776      -1.54766238    
  0.420626789      0.270320386     -0.163636401       317.032776      -1.54766238    
  0.327430397      0.377874792     -0.163636401       317.032776      -1.54766238    
  0.207707494      0.454816014      -8.18181783E-02   226.795944      -1.54766238    
  0.327430397      0.377874792      -8.18181783E-02   226.795944      -1.54766238    
  0.327430397      0.377874792     -0.163636401       226.795944      -1.54766238    
  0.207707494      0.454816014     -0.163636401       226.795944      -1.54766238    
   7.11574182E-02  0.494910687      -8.18181783E-02   118.185333      -1.54766214    
  0.207707494      0.454816014      -8.18181783E-02   118.185333      -1.54766214    
  0.207707494      0.454816014     -0.163636401       118.185333      -1.54766214    
   7.11574182E-02  0.494910687     -0.163636401       118.185333      -1.54766214    
  -7.11574182E-02  0.494910687      -8.18181783E-02   5.07443692E-05  -1.02627885    
   7.11574182E-02  0.494910687      -8.18181783E-02   5.07443692E-05  -1.02627885    
   7.11574182E-02  0.494910687     -0.163636401       5.07443692E-05  -1.02627885    
  -7.11574182E-02  0.494910687     -0.163636401       5.07443692E-05  -1.02627885    
 -0.207707494      0.454816014      -8.18181783E-02   118.185318       1.59393001    
  -7.11574182E-02  0.494910687      -8.18181783E-02   118.185318       1.59393001    
  -7.11574182E-02  0.494910687     -0.163636401       118.185318       1.59393001    
 -0.207707494      0.454816014     -0.163636401       118.185318       1.59393001    
 -0.327430397      0.377874792      -8.18181783E-02   226.795837       1.59393001    
 -0.207707494      0.454816014      -8.18181783E-02   226.795837       1.59393001    
 -0.207707494      0.454816014     -0.163636401       226.795837       1.59393001    
 -0.327430397      0.377874792     -0.163636401       226.795837       1.59393001    
 -0.420626789      0.270320386      -8.18181783E-02   317.032776       1.59393013    
 -0.327430397      0.377874792      -8.18181783E-02   317.032776       1.59393013    
 -0.327430397      0.377874792     -0.163636401       317.032776       1.59393013    
 -0.420626789      0.270320386     -0.163636401       317.032776       1.59393013    
 -0.479746491      0.140866295      -8.18181783E-02   381.585846       1.59393013    
 -0.420626789      0.270320386      -8.18181783E-02   381.585846       1.59393013    
 -0.420626789      0.270320386     -0.163636401       381.585846       1.59393013    
 -0.479746491      0.140866295     -0.163636401       381.585846       1.59393013    
 -0.500000000       2.84000009E-16  -8.18181783E-02   415.224884       1.59393013    
 -0.479746491      0.140866295      -8.18181783E-02   415.224884       1.59393013    
 -0.479746491      0.140866295     -0.163636401       415.224884       1.59393013    
 -0.500000000       2.84000009E-16 -0.163636401       415.224884       1.59393013    
  0.479746491      0.140866295     -0.163636401       412.625671      -1.54765821    
  0.500000000       0.00000000     -0.163636401       412.625671      -1.54765821    
  0.500000000       0.00000000     -0.245454505       412.625671      -1.54765821    
  0.479746491      0.140866295     -0.245454505       412.625671      -1.54765821    
  0.420626789      0.270320386     -0.163636401       379.196960      -1.54765821    
  0.479746491      0.140866295     -0.163636401       379.196960      -1.54765821    
  0.479746491      0.140866295     -0.245454505       379.196960      -1.54765821    
  0.420626789      0.270320386     -0.245454505       379.196960      -1.54765821    
  0.327430397      0.377874792     -0.163636401       315.048218      -1.54765821    
  0.420626789      0.270320386     -0.163636401       315.048218      -1.54765821    
  0.420626789      0.270320386     -0.245454505       315.048218      -1.54765821    
  0.327430397      0.377874792     -0.245454505       315.048218      -1.54765821    
  0.207707494      0.454816014     -0.163636401       225.376083      -1.54765821    
  0.327430397      0.377874792     -0.163636401       225.376083      -1.54765821    
  0.327430397      0.377874792     -0.245454505       225.376083      -1.54765821    
  0.207707494      0.454816014     -0.245454505       225.376083      -1.54765821    
   7.11574182E-02  0.494910687     -0.163636401       117.445473      -1.54765797    
  0.207707494      0.454816014     -0.163636401       117.445473      -1.54765797    
  0.207707494      0.454816014     -0.245454505       117.445473      -1.54765797    
   7.11574182E-02  0.494910687     -0.245454505       117.445473      -1.54765797    
  -7.11574182E-02  0.494910687     -0.163636401       3.15655016E-05  -1.01668346    
   7.11574182E-02  0.494910687     -0.163636401       3.15655016E-05  -1.01668346    
   7.11574182E-02  0.494910687     -0.245454505       3.15655016E-05  -1.01668346    
  -7.11574182E-02  0.494910687     -0.245454505       3.15655016E-05  -1.01668346    
 -0.207707494      0.454816014     -0.163636401       117.445404       1.59393418    
  -7.11574182E-02  0.494910687     -0.163636401       117.445404       1.59393418    
  -7.11574182E-02  0.494910687     -0.245454505       117.445404       1.59393418    
 -0.207707494      0.454816014     -0.245454505       117.445404       1.59393418    
 -0.327430397      0.377874792     -0.163636401       225.376022       1.59393418    
 -0.207707494      0.454816014     -0.163636401       225.376022       1.59393418    
 -0.207707494      0.454816014     -0.245454505       225.376022       1.59393418    
 -0.327430397      0.377874792     -0.245454505       225.376022       1.59393418    
 -0.420626789      0.270320386     -0.163636401       315.048218       1.59393430    
 -0.327430397      0.377874792     -0.163636401       315.048218       1.59393430    
 -0.327430397      0.377874792     -0.245454505       315.048218       1.59393430    
 -0.420626789      0.270320386     -0.245454505       315.048218       1.59393430    
 -0.479746491      0.140866295     -0.163636401       379.197021       1.59393430    
 -0.420626789      0.270320386     -0.163636401       379.197021       1.59393430    
 -0.420626789      0.270320386     -0.245454505       379.197021       1.59393430    
 -0.479746491      0.140866295     -0.245454505       379.197021       1.59393430    
 -0.500000000       2.84000009E-16 -0.163636401       412.625519       1.59393430    
 -0.479746491      0.140866295     -0.163636401       412.625519       1.59393430    
 -0.479746491      0.140866295     -0.245454505       412.625519       1.59393430    
 -0.500000000       2.84000009E-16 -0.245454505       412.625519       1.59393430    
  0.479746491      0.140866295     -0.245454505       409.453217      -1.54763436    
  0.500000000       0.00000000     -0.245454505       409.453217      -1.54763436    
  0.500000000       0.00000000     -0.327272713       409.453217      -1.54763436    
  0.479746491      0.140866295     -0.327272713       409.453217      -1.54763436    
  0.420626789      0.270320386     -0.245454505       376.281586      -1.54763436    
  0.479746491      0.140866295     -0.245454505       376.281586      -1.54763436    
  0.479746491      0.140866295     -0.327272713       376.281586      -1.54763436    
  0.420626789      0.270320386     -0.327272713       376.281586      -1.54763436    
  0.327430397      0.377874792     -0.245454505       312.626038      -1.54763436    
  0.420626789      0.270320386     -0.245454505       312.626038      -1.54763436    
  0.420626789      0.270320386     -0.327272713       312.626038      -1.54763436    
  0.327430397      0.377874792     -0.327272713       312.626038      -1.54763436    
  0.207707494      0.454816014     -0.245454505       223.643478      -1.54763436    
  0.327430397      0.377874792     -0.245454505       223.643478      -1.54763436    
  0.327430397      0.377874792     -0.327272713       223.643478      -1.54763436    
  0.207707494      0.454816014     -0.327272713       223.643478      -1.54763436    
   7.11574182E-02  0.494910687     -0.245454505       116.542526      -1.54763424    
  0.207707494      0.454816014     -0.245454505       116.542526      -1.54763424    
  0.207707494      0.454816014     -0.327272713       116.542526      -1.54763424    
   7.11574182E-02  0.494910687     -0.327272713       116.542526      -1.54763424    
  -7.11574182E-02  0.494910687     -0.245454505       4.36272931E-05 -0.926033437    
   7.11574182E-02  0.494910687     -0.245454505       4.36272931E-05 -0.926033437    
   7.11574182E-02  0.494910687     -0.327272713       4.36272931E-05 -0.926033437    
  -7.11574182E-02  0.494910687     -0.327272713       4.36272931E-05 -0.926033437    
 -0.207707494      0.454816014     -0.245454505       116.542458       1.59395802    
  -7.11574182E-02  0.494910687     -0.245454505       116.542458       1.59395802    
  -7.11574182E-02  0.494910687     -0.327272713       116.542458       1.59395802    
 -0.207707494      0.454816014     -0.327272713       116.542458       1.59395802    
 -0.327430397      0.377874792     -0.245454505       223.643356       1.59395802    
 -0.207707494      0.454816014     -0.245454505       223.643356       1.59395802    
 -0.207707494      0.454816014     -0.327272713       223.643356       1.59395802    
 -0.327430397      0.377874792     -0.327272713       223.643356       1.59395802    
 -0.420626789      0.270320386     -0.245454505       312.626160       1.59395814    
 -0.327430397      0.377874792     -0.245454505       312.626160       1.59395814    
 -0.327430397      0.377874792     -0.327272713       312.626160       1.59395814    
 -0.420626789      0.270320386     -0.327272713       312.626160       1.59395814    
 -0.479746491      0.140866295     -0.245454505       376.281555       1.59395814    
 -0.420626789      0.270320386     -0.245454505       376.281555       1.59395814    
 -0.420626789      0.270320386     -0.327272713       376.281555       1.59395814    
 -0.479746491      0.140866295     -0.327272713       376.281555       1.59395814    
 -0.500000000       2.84000009E-16 -0.245454505       409.453064       1.59395814    
 -0.479746491      0.140866295     -0.245454505       409.453064       1.59395814    
 -0.479746491      0.140866295     -0.327272713       409.453064       1.59395814    
 -0.500000000       2.84000009E-16 -0.327272713       409.453064       1.59395814    
  0.479746491      0.140866295     -0.327272713       405.491333      -1.54758251    
  0.500000000       0.00000000     -0.327272713       405.491333      -1.54758251    
  0.500000000       0.00000000     -0.409090906       405.491333      -1.54758251    
  0.479746491      0.140866295     -0.409090906       405.491333      -1.54758251    
  0.420626789      0.270320386     -0.327272713       372.640900      -1.54758263    
  0.479746491      0.140866295     -0.327272713       372.640900      -1.54758263    
  0.479746491      0.140866295     -0.409090906       372.640900      -1.54758263    
  0.420626789      0.270320386     -0.409090906       372.640900      -1.54758263    
  0.327430397      0.377874792     -0.327272713       309.601013      -1.54758251    
  0.420626789      0.270320386     -0.327272713       309.601013      -1.54758251    
  0.420626789      0.270320386     -0.409090906       309.601013      -1.54758251    
  0.327430397      0.377874792     -0.409090906       309.601013      -1.54758251    
  0.207707494      0.454816014     -0.327272713       221.479523      -1.54758263    
  0.327430397      0.377874792     -0.327272713       221.479523      -1.54758263    
  0.327430397      0.377874792     -0.409090906       221.479523      -1.54758263    
  0.207707494      0.454816014     -0.409090906       221.479523      -1.54758263    
   7.11574182E-02  0.494910687     -0.327272713       115.414886      -1.54758239    
  0.207707494      0.454816014     -0.327272713       115.414886      -1.54758239    
  0.207707494      0.454816014     -0.409090906       115.414886      -1.54758239    
   7.11574182E-02  0.494910687     -0.409090906       115.414886      -1.54758239    
  -7.11574182E-02  0.494910687     -0.327272713       4.59348157E-05 -0.624086142    
   7.11574182E-02  0.494910687     -0.327272713       4.59348157E-05 -0.624086142    
   7.11574182E-02  0.494910687     -0.409090906       4.59348157E-05 -0.624086142    
  -7.11574182E-02  0.494910687     -0.409090906       4.59348157E-05 -0.624086142    
 -0.207707494      0.454816014     -0.327272713       115.414803       1.59400976    
  -7.11574182E-02  0.494910687     -0.327272713       115.414803       1.59400976    
  -7.11574182E-02  0.494910687     -0.409090906       115.414803       1.59400976    
 -0.207707494      0.454816014     -0.409090906       115.414803       1.59400976    
 -0.327430397      0.377874792     -0.327272713       221.479385       1.59400988    
 -0.207707494      0.454816014     -0.327272713       221.479385       1.59400988    
 -0.207707494      0.454816014     -0.409090906       221.479385       1.59400988    
 -0.327430397      0.377874792     -0.409090906       221.479385       1.59400988    
 -0.420626789      0.270320386     -0.327272713       309.601013       1.59400988    
 -0.327430397      0.377874792     -0.327272713       309.601013       1.59400988    
 -0.327430397      0.377874792     -0.409090906       309.601013       1.59400988    
 -0.420626789      0.270320386     -0.409090906       309.601013       1.59400988    
 -0.479746491      0.140866295     -0.327272713       372.640839       1.59400988    
 -0.420626789      0.270320386     -0.327272713       372.640839       1.59400988    
 -0.420626789      0.270320386     -0.409090906       372.640839       1.59400988    
 -0.479746491      0.140866295     -0.409090906       372.640839       1.59400988    
 -0.500000000       2.84000009E-16 -0.327272713       405.491333       1.59401000    
 -0.479746491      0.140866295     -0.327272713       405.491333       1.59401000    
 -0.479746491      0.140866295     -0.409090906       405.491333       1.59401000    
 -0.500000000       2.84000009E-16 -0.409090906       405.491333       1.59401000    
  0.479746491      0.140866295     -0.409090906       400.468445      -1.54749262    
  0.500000000       0.00000000     -0.409090906       400.468445      -1.54749262    
  0.500000000       0.00000000     -0.490909100       400.468445      -1.54749262    
  0.479746491      0.140866295     -0.490909100       400.468445      -1.54749262    
  0.420626789      0.270320386     -0.409090906       368.024811      -1.54749250    
  0.479746491      0.140866295     -0.409090906       368.024811      -1.54749250    
  0.479746491      0.140866295     -0.490909100       368.024811      -1.54749250    
  0.420626789      0.270320386     -0.490909100       368.024811      -1.54749250    
  0.327430397      0.377874792     -0.409090906       305.765991      -1.54749250    
  0.420626789      0.270320386     -0.409090906       305.765991      -1.54749250    
  0.420626789      0.270320386     -0.490909100       305.765991      -1.54749250    
  0.327430397      0.377874792     -0.490909100       305.765991      -1.54749250    
  0.207707494      0.454816014     -0.409090906       218.736008      -1.54749262    
  0.327430397      0.377874792     -0.409090906       218.736008      -1.54749262    
  0.327430397      0.377874792     -0.490909100       218.736008      -1.54749262    
  0.207707494      0.454816014     -0.490909100       218.736008      -1.54749262    
   7.11574182E-02  0.494910687     -0.409090906       113.985229      -1.54749238    
  0.207707494      0.454816014     -0.409090906       113.985229      -1.54749238    
  0.207707494      0.454816014     -0.490909100       113.985229      -1.54749238    
   7.11574182E-02  0.494910687     -0.490909100       113.985229      -1.54749238    
  -7.11574182E-02  0.494910687     -0.409090906       3.15629695E-05 -0.948574245    
   7.11574182E-02  0.494910687     -0.409090906       3.15629695E-05 -0.948574245    
   7.11574182E-02  0.494910687     -0.490909100       3.15629695E-05 -0.948574245    
  -7.11574182E-02  0.494910687     -0.490909100       3.15629695E-05 -0.948574245    
 -0.207707494      0.454816014     -0.409090906       113.985107       1.59409988    
  -7.11574182E-02  0.494910687     -0.409090906       113.985107       1.59409988    
  -7.11574182E-02  0.494910687     -0.490909100       113.985107       1.59409988    
 -0.207707494      0.454816014     -0.490909100       113.985107       1.59409988    
 -0.327430397      0.377874792     -0.409090906       218.735977       1.59409988    
 -0.207707494      0.454816014     -0.409090906       218.735977       1.59409988    
 -0.207707494      0.454816014     -0.490909100       218.735977       1.59409988    
 -0.327430397      0.377874792     -0.490909100       218.735977       1.59409988    
 -0.420626789      0.270320386     -0.409090906       305.765900       1.59409988    
 -0.327430397      0.377874792     -0.409090906       305.765900       1.59409988    
 -0.327430397      0.377874792     -0.490909100       305.765900       1.59409988    
 -0.420626789      0.270320386     -0.490909100       305.765900       1.59409988    
 -0.479746491      0.140866295     -0.409090906       368.024872       1.59409988    
 -0.420626789      0.270320386     -0.409090906       368.024872       1.59409988    
 -0.420626789      0.270320386     -0.490909100       368.024872       1.59409988    
 -0.479746491      0.140866295     -0.490909100       368.024872       1.59409988    
 -0.500000000       2.84000009E-16 -0.409090906       400.468445       1.59409988    
 -0.479746491      0.140866295     -0.409090906       400.468445       1.59409988    
 -0.479746491      0.140866295     -0.490909100       400.468445       1.59409988    
 -0.500000000       2.84000009E-16 -0.490909100       400.468445       1.59409988    
  0.479746491      0.140866295     -0.490909100       393.878510      -1.54734623    
  0.500000000       0.00000000     -0.490909100       393.878510      -1.54734623    
  0.500000000       0.00000000     -0.572727323       393.878510      -1.54734623    
  0.479746491      0.140866295     -0.572727323       393.878510      -1.54734623    
  0.420626789      0.270320386     -0.490909100       361.968842      -1.54734623    
  0.479746491      0.140866295     -0.490909100       361.968842      -1.54734623    
  0.479746491      0.140866295     -0.572727323       361.968842      -1.54734623    
  0.420626789      0.270320386     -0.572727323       361.968842      -1.54734623    
  0.327430397      0.377874792     -0.490909100       300.734406      -1.54734623    
  0.420626789      0.270320386     -0.490909100       300.734406      -1.54734623    
  0.420626789      0.270320386     -0.572727323       300.734406      -1.54734623    
  0.327430397      0.377874792     -0.572727323       300.734406      -1.54734623    
  0.207707494      0.454816014     -0.490909100       215.136520      -1.54734635    
  0.327430397      0.377874792     -0.490909100       215.136520      -1.54734635    
  0.327430397      0.377874792     -0.572727323       215.136520      -1.54734635    
  0.207707494      0.454816014     -0.572727323       215.136520      -1.54734635    
   7.11574182E-02  0.494910687     -0.490909100       112.109505      -1.54734600    
  0.207707494      0.454816014     -0.490909100       112.109505      -1.54734600    
  0.207707494      0.454816014     -0.572727323       112.109505      -1.54734600    
   7.11574182E-02  0.494910687     -0.572727323       112.109505      -1.54734600    
  -7.11574182E-02  0.494910687     -0.490909100       4.37852359E-05 -0.950294077    
   7.11574182E-02  0.494910687     -0.490909100       4.37852359E-05 -0.950294077    
   7.11574182E-02  0.494910687     -0.572727323       4.37852359E-05 -0.950294077    
  -7.11574182E-02  0.494910687     -0.572727323       4.37852359E-05 -0.950294077    
 -0.207707494      0.454816014     -0.490909100       112.109421       1.59424615    
  -7.11574182E-02  0.494910687     -0.490909100       112.109421       1.59424615    
  -7.11574182E-02  0.494910687     -0.572727323       112.109421       1.59424615    
 -0.207707494      0.454816014     -0.572727323       112.109421       1.59424615    
 -0.327430397      0.377874792     -0.490909100       215.136444       1.59424615    
 -0.207707494      0.454816014     -0.490909100       215.136444       1.59424615    
 -0.207707494      0.454816014     -0.572727323       215.136444       1.59424615    
 -0.327430397      0.377874792     -0.572727323       215.136444       1.59424615    
 -0.420626789      0.270320386     -0.490909100       300.734253       1.59424627    
 -0.327430397      0.377874792     -0.490909100       300.734253       1.59424627    
 -0.327430397      0.377874792     -0.572727323       300.734253       1.59424627    
 -0.420626789      0.270320386     -0.572727323       300.734253       1.59424627    
 -0.479746491      0.140866295     -0.490909100       361.968689       1.59424627    
 -0.420626789      0.270320386     -0.490909100       361.968689       1.59424627    
 -0.420626789      0.270320386     -0.572727323       361.968689       1.59424627    
 -0.479746491      0.140866295     -0.572727323       361.968689       1.59424627    
 -0.500000000       2.84000009E-16 -0.490909100       393.878479       1.59424627    
 -0.479746491      0.140866295     -0.490909100       393.878479       1.59424627    
 -0.479746491      0.140866295     -0.572727323       393.878479       1.59424627    
 -0.500000000       2.84000009E-16 -0.572727323       393.878479       1.59424627    
  0.479746491      0.140866295     -0.572727323       384.960297      -1.54711449    
  0.500000000       0.00000000     -0.572727323       384.960297      -1.54711449    
  0.500000000       0.00000000     -0.654545426       384.960297      -1.54711449    
  0.479746491      0.140866295     -0.654545426       384.960297      -1.54711449    
  0.420626789      0.270320386     -0.572727323       353.773132      -1.54711461    
  0.479746491      0.140866295     -0.572727323       353.773132      -1.54711461    
  0.479746491      0.140866295     -0.654545426       353.773132      -1.54711461    
  0.420626789      0.270320386     -0.654545426       353.773132      -1.54711461    
  0.327430397      0.377874792     -0.572727323       293.925110      -1.54711449    
  0.420626789      0.270320386     -0.572727323       293.925110      -1.54711449    
  0.420626789      0.270320386     -0.654545426       293.925110      -1.54711449    
  0.327430397      0.377874792     -0.654545426       293.925110      -1.54711449    
  0.207707494      0.454816014     -0.572727323       210.265335      -1.54711449    
  0.327430397      0.377874792     -0.572727323       210.265335      -1.54711449    
  0.327430397      0.377874792     -0.654545426       210.265335      -1.54711449    
  0.207707494      0.454816014     -0.654545426       210.265335      -1.54711449    
   7.11574182E-02  0.494910687     -0.572727323       109.571144      -1.54711437    
  0.207707494      0.454816014     -0.572727323       109.571144      -1.54711437    
  0.207707494      0.454816014     -0.654545426       109.571144      -1.54711437    
   7.11574182E-02  0.494910687     -0.654545426       109.571144      -1.54711437    
  -7.11574182E-02  0.494910687     -0.572727323       4.96595239E-05 -0.953632534    
   7.11574182E-02  0.494910687     -0.572727323       4.96595239E-05 -0.953632534    
   7.11574182E-02  0.494910687     -0.654545426       4.96595239E-05 -0.953632534    
  -7.11574182E-02  0.494910687     -0.654545426       4.96595239E-05 -0.953632534    
 -0.207707494      0.454816014     -0.572727323       109.571022       1.59447777    
  -7.11574182E-02  0.494910687     -0.572727323       109.571022       1.59447777    
  -7.11574182E-02  0.494910687     -0.654545426       109.571022       1.59447777    
 -0.207707494      0.454816014     -0.654545426       109.571022       1.59447777    
 -0.327430397      0.377874792     -0.572727323       210.265244       1.59447789    
 -0.207707494      0.454816014     -0.572727323       210.265244       1.59447789    
 -0.207707494      0.454816014     -0.654545426       210.265244       1.59447789    
 -0.327430397      0.377874792     -0.654545426       210.265244       1.59447789    
 -0.420626789      0.270320386     -0.572727323       293.925049       1.59447801    
 -0.327430397      0.377874792     -0.572727323       293.925049       1.59447801    
 -0.327430397      0.377874792     -0.654545426       293.925049       1.59447801    
 -0.420626789      0.270320386     -0.654545426       293.925049       1.59447801    
 -0.479746491      0.140866295     -0.572727323       353.773041       1.59447801    
 -0.420626789      0.270320386     -0.572727323       353.773041       1.59447801    
 -0.420626789      0.270320386     -0.654545426       353.773041       1.59447801    