 VARIABLES="X" "Y" "Z" "abs(p) (Pa)" "angle(p) (rad)"
ZONE N=    528,E =     462, F=FEPOINT, ET=QUADRILATERAL
  0.479746491      0.140866295       0.00000000       352.541779      -1.55400777    
  0.500000000       0.00000000       0.00000000       352.541779      -1.55400777    
  0.500000000       0.00000000      -8.18181783E-02   352.541779      -1.55400777    
  0.479746491      0.140866295      -8.18181783E-02   352.541779      -1.55400777    
  0.420626789      0.270320386       0.00000000       323.981049      -1.55400777    
  0.479746491      0.140866295       0.00000000       323.981049      -1.55400777    
  0.479746491      0.140866295      -8.18181783E-02   323.981049      -1.55400777    
  0.420626789      0.270320386      -8.18181783E-02   323.981049      -1.55400777    
  0.327430397      0.377874792       0.00000000       269.173126      -1.55400777    
  0.420626789      0.270320386       0.00000000       269.173126      -1.55400777    
  0.420626789      0.270320386      -8.18181783E-02   269.173126      -1.55400777    
  0.327430397      0.377874792      -8.18181783E-02   269.173126      -1.55400777    
  0.207707494      0.454816014       0.00000000       192.558426      -1.55400777    
  0.327430397      0.377874792       0.00000000       192.558426      -1.55400777    
  0.327430397      0.377874792      -8.18181783E-02   192.558426      -1.55400777    
  0.207707494      0.454816014      -8.18181783E-02   192.558426      -1.55400777    
   7.11574182E-02  0.494910687       0.00000000       100.343834      -1.55400765    
  0.207707494      0.454816014       0.00000000       100.343834      -1.55400765    
  0.207707494      0.454816014      -8.18181783E-02   100.343834      -1.55400765    
   7.11574182E-02  0.494910687      -8.18181783E-02   100.343834      -1.55400765    
  -7.11574182E-02  0.494910687       0.00000000       9.58545388E-06 -0.243981808    
   7.11574182E-02  0.494910687       0.00000000       9.58545388E-06 -0.243981808    
   7.11574182E-02  0.494910687      -8.18181783E-02   9.58545388E-06 -0.243981808    
  -7.11574182E-02  0.494910687      -8.18181783E-02   9.58545388E-06 -0.243981808    
 -0.207707494      0.454816014       0.00000000       100.343781       1.58758473    
  -7.11574182E-02  0.494910687       0.00000000       100.343781       1.58758473    
  -7.11574182E-02  0.494910687      -8.18181783E-02   100.343781       1.58758473    
 -0.207707494      0.454816014      -8.18181783E-02   100.343781       1.58758473    
 -0.327430397      0.377874792       0.00000000       192.558472       1.58758485    
 -0.207707494      0.454816014       0.00000000       192.558472       1.58758485    
 -0.207707494      0.454816014      -8.18181783E-02   192.558472       1.58758485    
 -0.327430397      0.377874792      -8.18181783E-02   192.558472       1.58758485    
 -0.420626789      0.270320386       0.00000000       269.173126       1.58758485    
 -0.327430397      0.377874792       0.00000000       269.173126       1.58758485    
 -0.327430397      0.377874792      -8.18181783E-02   269.173126       1.58758485    
 -0.420626789      0.270320386      -8.18181783E-02   269.173126       1.58758485    
 -0.479746491      0.140866295       0.00000000       323.981018       1.58758485    
 -0.420626789      0.270320386       0.00000000       323.981018       1.58758485    
 -0.420626789      0.270320386      -8.18181783E-02   323.981018       1.58758485    
 -0.479746491      0.140866295      -8.18181783E-02   323.981018       1.58758485    
 -0.500000000       2.84000009E-16   0.00000000       352.541748       1.58758485    
 -0.479746491      0.140866295       0.00000000       352.541748       1.58758485    
 -0.479746491      0.140866295      -8.18181783E-02   352.541748       1.58758485    
 -0.500000000       2.84000009E-16  -8.18181783E-02   352.541748       1.58758485    
  0.479746491      0.140866295      -8.18181783E-02   351.377808      -1.55401611    
  0.500000000       0.00000000      -8.18181783E-02   351.377808      -1.55401611    
  0.500000000       0.00000000     -0.163636401       351.377808      -1.55401611    
  0.479746491      0.140866295     -0.163636401       351.377808      -1.55401611    
  0.420626789      0.270320386      -8.18181783E-02   322.911133      -1.55401611    
  0.479746491      0.140866295      -8.18181783E-02   322.911133      -1.55401611    
  0.479746491      0.140866295     -0.163636401       322.911133      -1.55401611    
  0.420626789      0.270320386     -0.163636401       322.911133      -1.55401611    
  0.327430397      0.377874792      -8.18181783E-02   268.284485      -1.55401611    
  0.420626789      0.270320386      -8.18181783E-02   268.284485      -1.55401611    
  0.420626789      0.270320386     -0.163636401       268.284485      -1.55401611    
  0.327430397      0.377874792     -0.163636401       268.284485      -1.55401611    
  0.207707494      0.454816014      -8.18181783E-02   191.922653      -1.55401611    
  0.327430397      0.377874792      -8.18181783E-02   191.922653      -1.55401611    
  0.327430397      0.377874792     -0.163636401       191.922653      -1.55401611    
  0.207707494      0.454816014     -0.163636401       191.922653      -1.55401611    
   7.11574182E-02  0.494910687      -8.18181783E-02   100.012550      -1.55401611    
  0.207707494      0.454816014      -8.18181783E-02   100.012550      -1.55401611    
  0.207707494      0.454816014     -0.163636401       100.012550      -1.55401611    
   7.11574182E-02  0.494910687     -0.163636401       100.012550      -1.55401611    
  -7.11574182E-02  0.494910687      -8.18181783E-02   1.35687724E-05 -0.703912437    
   7.11574182E-02  0.494910687      -8.18181783E-02   1.35687724E-05 -0.703912437    
   7.11574182E-02  0.494910687     -0.163636401       1.35687724E-05 -0.703912437    
  -7.11574182E-02  0.494910687     -0.163636401       1.35687724E-05 -0.703912437    
 -0.207707494      0.454816014      -8.18181783E-02   100.012543       1.58757651    
  -7.11574182E-02  0.494910687      -8.18181783E-02   100.012543       1.58757651    
  -7.11574182E-02  0.494910687     -0.163636401       100.012543       1.58757651    
 -0.207707494      0.454816014     -0.163636401       100.012543       1.58757651    
 -0.327430397      0.377874792      -8.18181783E-02   191.922684       1.58757639    
 -0.207707494      0.454816014      -8.18181783E-02   191.922684       1.58757639    
 -0.207707494      0.454816014     -0.163636401       191.922684       1.58757639    
 -0.327430397      0.377874792     -0.163636401       191.922684       1.58757639    
 -0.420626789      0.270320386      -8.18181783E-02   268.284454       1.58757639    
 -0.327430397      0.377874792      -8.18181783E-02   268.284454       1.58757639    
 -0.327430397      0.377874792     -0.163636401       268.284454       1.58757639    
 -0.420626789      0.270320386     -0.163636401       268.284454       1.58757639    
 -0.479746491      0.140866295      -8.18181783E-02   322.911407       1.58757651    
 -0.420626789      0.270320386      -8.18181783E-02   322.911407       1.58757651    
 -0.420626789      0.270320386     -0.163636401       322.911407       1.58757651    
 -0.479746491      0.140866295     -0.163636401       322.911407       1.58757651    
 -0.500000000       2.84000009E-16  -8.18181783E-02   351.377899       1.58757651    
 -0.479746491      0.140866295      -8.18181783E-02   351.377899       1.58757651    
 -0.479746491      0.140866295     -0.163636401       351.377899       1.58757651    
 -0.500000000       2.84000009E-16 -0.163636401       351.377899       1.58757651    
  0.479746491      0.140866295     -0.163636401       349.459351      -1.55400646    
  0.500000000       0.00000000     -0.163636401       349.459351      -1.55400646    
  0.500000000       0.00000000     -0.245454505       349.459351      -1.55400646    
  0.479746491      0.140866295     -0.245454505       349.459351      -1.55400646    
  0.420626789      0.270320386     -0.163636401       321.148071      -1.55400646    
  0.479746491      0.140866295     -0.163636401       321.148071      -1.55400646    
  0.479746491      0.140866295     -0.245454505       321.148071      -1.55400646    
  0.420626789      0.270320386     -0.245454505       321.148071      -1.55400646    
  0.327430397      0.377874792     -0.163636401       266.819519      -1.55400646    
  0.420626789      0.270320386     -0.163636401       266.819519      -1.55400646    
  0.420626789      0.270320386     -0.245454505       266.819519      -1.55400646    
  0.327430397      0.377874792     -0.245454505       266.819519      -1.55400646    
  0.207707494      0.454816014     -0.163636401       190.874680      -1.55400646    
  0.327430397      0.377874792     -0.163636401       190.874680      -1.55400646    
  0.327430397      0.377874792     -0.245454505       190.874680      -1.55400646    
  0.207707494      0.454816014     -0.245454505       190.874680      -1.55400646    
   7.11574182E-02  0.494910687     -0.163636401       99.4664459      -1.55400634    
  0.207707494      0.454816014     -0.163636401       99.4664459      -1.55400634    
  0.207707494      0.454816014     -0.245454505       99.4664459      -1.55400634    
   7.11574182E-02  0.494910687     -0.245454505       99.4664459      -1.55400634    
  -7.11574182E-02  0.494910687     -0.163636401       1.62497545E-05  -1.35658944    
   7.11574182E-02  0.494910687     -0.163636401       1.62497545E-05  -1.35658944    
   7.11574182E-02  0.494910687     -0.245454505       1.62497545E-05  -1.35658944    
  -7.11574182E-02  0.494910687     -0.245454505       1.62497545E-05  -1.35658944    
 -0.207707494      0.454816014     -0.163636401       99.4664307       1.58758605    
  -7.11574182E-02  0.494910687     -0.163636401       99.4664307       1.58758605    
  -7.11574182E-02  0.494910687     -0.245454505       99.4664307       1.58758605    
 -0.207707494      0.454816014     -0.245454505       99.4664307       1.58758605    
 -0.327430397      0.377874792     -0.163636401       190.874680       1.58758616    
 -0.207707494      0.454816014     -0.163636401       190.874680       1.58758616    
 -0.207707494      0.454816014     -0.245454505       190.874680       1.58758616    
 -0.327430397      0.377874792     -0.245454505       190.874680       1.58758616    
 -0.420626789      0.270320386     -0.163636401       266.819519       1.58758616    
 -0.327430397      0.377874792     -0.163636401       266.819519       1.58758616    
 -0.327430397      0.377874792     -0.245454505       266.819519       1.58758616    
 -0.420626789      0.270320386     -0.245454505       266.819519       1.58758616    
 -0.479746491      0.140866295     -0.163636401       321.148163       1.58758616    
 -0.420626789      0.270320386     -0.163636401       321.148163       1.58758616    
 -0.420626789      0.270320386     -0.245454505       321.148163       1.58758616    
 -0.479746491      0.140866295     -0.245454505       321.148163       1.58758616    
 -0.500000000       2.84000009E-16 -0.163636401       349.459381       1.58758616    
 -0.479746491      0.140866295     -0.163636401       349.459381       1.58758616    
 -0.479746491      0.140866295     -0.245454505       349.459381       1.58758616    
 -0.500000000       2.84000009E-16 -0.245454505       349.459381       1.58758616    
  0.479746491      0.140866295     -0.245454505       346.981415      -1.55398130    
  0.500000000       0.00000000     -0.245454505       346.981415      -1.55398130    
  0.500000000       0.00000000     -0.327272713       346.981415      -1.55398130    
  0.479746491      0.140866295     -0.327272713       346.981415      -1.55398130    
  0.420626789      0.270320386     -0.245454505       318.871033      -1.55398130    
  0.479746491      0.140866295     -0.245454505       318.871033      -1.55398130    
  0.479746491      0.140866295     -0.327272713       318.871033      -1.55398130    
  0.420626789      0.270320386     -0.327272713       318.871033      -1.55398130    
  0.327430397      0.377874792     -0.245454505       264.927734      -1.55398130    
  0.420626789      0.270320386     -0.245454505       264.927734      -1.55398130    
  0.420626789      0.270320386     -0.327272713       264.927734      -1.55398130    
  0.327430397      0.377874792     -0.327272713       264.927734      -1.55398130    
  0.207707494      0.454816014     -0.245454505       189.521423      -1.55398130    
  0.327430397      0.377874792     -0.245454505       189.521423      -1.55398130    
  0.327430397      0.377874792     -0.327272713       189.521423      -1.55398130    
  0.207707494      0.454816014     -0.327272713       189.521423      -1.55398130    
   7.11574182E-02  0.494910687     -0.245454505       98.7612228      -1.55398118    
  0.207707494      0.454816014     -0.245454505       98.7612228      -1.55398118    
  0.207707494      0.454816014     -0.327272713       98.7612228      -1.55398118    
   7.11574182E-02  0.494910687     -0.327272713       98.7612228      -1.55398118    
  -7.11574182E-02  0.494910687     -0.245454505       3.37737729E-05  -1.33009791    
   7.11574182E-02  0.494910687     -0.245454505       3.37737729E-05  -1.33009791    
   7.11574182E-02  0.494910687     -0.327272713       3.37737729E-05  -1.33009791    
  -7.11574182E-02  0.494910687     -0.327272713       3.37737729E-05  -1.33009791    
 -0.207707494      0.454816014     -0.245454505       98.7611771       1.58761120    
  -7.11574182E-02  0.494910687     -0.245454505       98.7611771       1.58761120    
  -7.11574182E-02  0.494910687     -0.327272713       98.7611771       1.58761120    
 -0.207707494      0.454816014     -0.327272713       98.7611771       1.58761120    
 -0.327430397      0.377874792     -0.245454505       189.521317       1.58761120    
 -0.207707494      0.454816014     -0.245454505       189.521317       1.58761120    
 -0.207707494      0.454816014     -0.327272713       189.521317       1.58761120    
 -0.327430397      0.377874792     -0.327272713       189.521317       1.58761120    
 -0.420626789      0.270320386     -0.245454505       264.927582       1.58761132    
 -0.327430397      0.377874792     -0.245454505       264.927582       1.58761132    
 -0.327430397      0.377874792     -0.327272713       264.927582       1.58761132    
 -0.420626789      0.270320386     -0.327272713       264.927582       1.58761132    
 -0.479746491      0.140866295     -0.245454505       318.871124       1.58761120    
 -0.420626789      0.270320386     -0.245454505       318.871124       1.58761120    
 -0.420626789      0.270320386     -0.327272713       318.871124       1.58761120    
 -0.479746491      0.140866295     -0.327272713       318.871124       1.58761120    
 -0.500000000       2.84000009E-16 -0.245454505       346.981445       1.58761120    
 -0.479746491      0.140866295     -0.245454505       346.981445       1.58761120    
 -0.479746491      0.140866295     -0.327272713       346.981445       1.58761120    
 -0.500000000       2.84000009E-16 -0.327272713       346.981445       1.58761120    
  0.479746491      0.140866295     -0.327272713       343.808868      -1.55393612    
  0.500000000       0.00000000     -0.327272713       343.808868      -1.55393612    
  0.500000000       0.00000000     -0.409090906       343.808868      -1.55393612    
  0.479746491      0.140866295     -0.409090906       343.808868      -1.55393612    
  0.420626789      0.270320386     -0.327272713       315.955627      -1.55393612    
  0.479746491      0.140866295     -0.327272713       315.955627      -1.55393612    
  0.479746491      0.140866295     -0.409090906       315.955627      -1.55393612    
  0.420626789      0.270320386     -0.409090906       315.955627      -1.55393612    
  0.327430397      0.377874792     -0.327272713       262.505493      -1.55393612    
  0.420626789      0.270320386     -0.327272713       262.505493      -1.55393612    
  0.420626789      0.270320386     -0.409090906       262.505493      -1.55393612    
  0.327430397      0.377874792     -0.409090906       262.505493      -1.55393612    
  0.207707494      0.454816014     -0.327272713       187.788605      -1.55393624    
  0.327430397      0.377874792     -0.327272713       187.788605      -1.55393624    
  0.327430397      0.377874792     -0.409090906       187.788605      -1.55393624    
  0.207707494      0.454816014     -0.409090906       187.788605      -1.55393624    
   7.11574182E-02  0.494910687     -0.327272713       97.8582687      -1.55393600    
  0.207707494      0.454816014     -0.327272713       97.8582687      -1.55393600    
  0.207707494      0.454816014     -0.409090906       97.8582687      -1.55393600    
   7.11574182E-02  0.494910687     -0.409090906       97.8582687      -1.55393600    
  -7.11574182E-02  0.494910687     -0.327272713       1.30130065E-05  0.285114497    
   7.11574182E-02  0.494910687     -0.327272713       1.30130065E-05  0.285114497    
   7.11574182E-02  0.494910687     -0.409090906       1.30130065E-05  0.285114497    
  -7.11574182E-02  0.494910687     -0.409090906       1.30130065E-05  0.285114497    
 -0.207707494      0.454816014     -0.327272713       97.8582306       1.58765650    
  -7.11574182E-02  0.494910687     -0.327272713       97.8582306       1.58765650    
  -7.11574182E-02  0.494910687     -0.409090906       97.8582306       1.58765650    
 -0.207707494      0.454816014     -0.409090906       97.8582306       1.58765650    
 -0.327430397      0.377874792     -0.327272713       187.788528       1.58765638    
 -0.207707494      0.454816014     -0.327272713       187.788528       1.58765638    
 -0.207707494      0.454816014     -0.409090906       187.788528       1.58765638    
 -0.327430397      0.377874792     -0.409090906       187.788528       1.58765638    
 -0.420626789      0.270320386     -0.327272713       262.505463       1.58765638    
 -0.327430397      0.377874792     -0.327272713       262.505463       1.58765638    
 -0.327430397      0.377874792     -0.409090906       262.505463       1.58765638    
 -0.420626789      0.270320386     -0.409090906       262.505463       1.58765638    
 -0.479746491      0.140866295     -0.327272713       315.955719       1.58765650    
 -0.420626789      0.270320386     -0.327272713       315.955719       1.58765650    
 -0.420626789      0.270320386     -0.409090906       315.955719       1.58765650    
 -0.479746491      0.140866295     -0.409090906       315.955719       1.58765650    
 -0.500000000       2.84000009E-16 -0.327272713       343.808807       1.58765638    
 -0.479746491      0.140866295     -0.327272713       343.808807       1.58765638    
 -0.479746491      0.140866295     -0.409090906       343.808807       1.58765638    
 -0.500000000       2.84000009E-16 -0.409090906       343.808807       1.58765638    
  0.479746491      0.140866295     -0.409090906       339.692993      -1.55386317    
  0.500000000       0.00000000     -0.409090906       339.692993      -1.55386317    
  0.500000000       0.00000000     -0.490909100       339.692993      -1.55386317    
  0.479746491      0.140866295     -0.490909100       339.692993      -1.55386317    
  0.420626789      0.270320386     -0.409090906       312.172943      -1.55386317    
  0.479746491      0.140866295     -0.409090906       312.172943      -1.55386317    
  0.479746491      0.140866295     -0.490909100       312.172943      -1.55386317    
  0.420626789      0.270320386     -0.490909100       312.172943      -1.55386317    
  0.327430397      0.377874792     -0.409090906       259.362488      -1.55386317    
  0.420626789      0.270320386     -0.409090906       259.362488      -1.55386317    
  0.420626789      0.270320386     -0.490909100       259.362488      -1.55386317    
  0.327430397      0.377874792     -0.490909100       259.362488      -1.55386317    
  0.207707494      0.454816014     -0.409090906       185.540283      -1.55386317    
  0.327430397      0.377874792     -0.409090906       185.540283      -1.55386317    
  0.327430397      0.377874792     -0.490909100       185.540283      -1.55386317    
  0.207707494      0.454816014     -0.490909100       185.540283      -1.55386317    
   7.11574182E-02  0.494910687     -0.409090906       96.6866608      -1.55386317    
  0.207707494      0.454816014     -0.409090906       96.6866608      -1.55386317    
  0.207707494      0.454816014     -0.490909100       96.6866608      -1.55386317    
   7.11574182E-02  0.494910687     -0.490909100       96.6866608      -1.55386317    
  -7.11574182E-02  0.494910687     -0.409090906       1.51304666E-05 -0.804048717    
   7.11574182E-02  0.494910687     -0.409090906       1.51304666E-05 -0.804048717    
   7.11574182E-02  0.494910687     -0.490909100       1.51304666E-05 -0.804048717    
  -7.11574182E-02  0.494910687     -0.490909100       1.51304666E-05 -0.804048717    
 -0.207707494      0.454816014     -0.409090906       96.6865921       1.58772933    
  -7.11574182E-02  0.494910687     -0.409090906       96.6865921       1.58772933    
  -7.11574182E-02  0.494910687     -0.490909100       96.6865921       1.58772933    
 -0.207707494      0.454816014     -0.490909100       96.6865921       1.58772933    
 -0.327430397      0.377874792     -0.409090906       185.540268       1.58772933    
 -0.207707494      0.454816014     -0.409090906       185.540268       1.58772933    
 -0.207707494      0.454816014     -0.490909100       185.540268       1.58772933    
 -0.327430397      0.377874792     -0.490909100       185.540268       1.58772933    
 -0.420626789      0.270320386     -0.409090906       259.362579       1.58772933    
 -0.327430397      0.377874792     -0.409090906       259.362579       1.58772933    
 -0.327430397      0.377874792     -0.490909100       259.362579       1.58772933    
 -0.420626789      0.270320386     -0.490909100       259.362579       1.58772933    
 -0.479746491      0.140866295     -0.409090906       312.173096       1.58772945    
 -0.420626789      0.270320386     -0.409090906       312.173096       1.58772945    
 -0.420626789      0.270320386     -0.490909100       312.173096       1.58772945    
 -0.479746491      0.140866295     -0.490909100       312.173096       1.58772945    
 -0.500000000       2.84000009E-16 -0.409090906       339.692871       1.58772933    
 -0.479746491      0.140866295     -0.409090906       339.692871       1.58772933    
 -0.479746491      0.140866295     -0.490909100       339.692871       1.58772933    
 -0.500000000       2.84000009E-16 -0.490909100       339.692871       1.58772933    
  0.479746491      0.140866295     -0.490909100       334.223694      -1.55374992    
  0.500000000       0.00000000     -0.490909100       334.223694      -1.55374992    
  0.500000000       0.00000000     -0.572727323       334.223694      -1.55374992    
  0.479746491      0.140866295     -0.572727323       334.223694      -1.55374992    
  0.420626789      0.270320386     -0.490909100       307.147003      -1.55374980    
  0.479746491      0.140866295     -0.490909100       307.147003      -1.55374980    
  0.479746491      0.140866295     -0.572727323       307.147003      -1.55374980    
  0.420626789      0.270320386     -0.572727323       307.147003      -1.55374980    
  0.327430397      0.377874792     -0.490909100       255.187012      -1.55374992    
  0.420626789      0.270320386     -0.490909100       255.187012      -1.55374992    
  0.420626789      0.270320386     -0.572727323       255.187012      -1.55374992    
  0.327430397      0.377874792     -0.572727323       255.187012      -1.55374992    
  0.207707494      0.454816014     -0.490909100       182.553162      -1.55374992    
  0.327430397      0.377874792     -0.490909100       182.553162      -1.55374992    
  0.327430397      0.377874792     -0.572727323       182.553162      -1.55374992    
  0.207707494      0.454816014     -0.572727323       182.553162      -1.55374992    
   7.11574182E-02  0.494910687     -0.490909100       95.1299820      -1.55374980    
  0.207707494      0.454816014     -0.490909100       95.1299820      -1.55374980    
  0.207707494      0.454816014     -0.572727323       95.1299820      -1.55374980    
   7.11574182E-02  0.494910687     -0.572727323       95.1299820      -1.55374980    
  -7.11574182E-02  0.494910687     -0.490909100       3.19962564E-05  -1.24202442    
   7.11574182E-02  0.494910687     -0.490909100       3.19962564E-05  -1.24202442    
   7.11574182E-02  0.494910687     -0.572727323       3.19962564E-05  -1.24202442    
  -7.11574182E-02  0.494910687     -0.572727323       3.19962564E-05  -1.24202442    
 -0.207707494      0.454816014     -0.490909100       95.1300125       1.58784246    
  -7.11574182E-02  0.494910687     -0.490909100       95.1300125       1.58784246    
  -7.11574182E-02  0.494910687     -0.572727323       95.1300125       1.58784246    
 -0.207707494      0.454816014     -0.572727323       95.1300125       1.58784246    
 -0.327430397      0.377874792     -0.490909100       182.553070       1.58784270    
 -0.207707494      0.454816014     -0.490909100       182.553070       1.58784270    
 -0.207707494      0.454816014     -0.572727323       182.553070       1.58784270    
 -0.327430397      0.377874792     -0.572727323       182.553070       1.58784270    
 -0.420626789      0.270320386     -0.490909100       255.186935       1.58784270    
 -0.327430397      0.377874792     -0.490909100       255.186935       1.58784270    
 -0.327430397      0.377874792     -0.572727323       255.186935       1.58784270    
 -0.420626789      0.270320386     -0.572727323       255.186935       1.58784270    
 -0.479746491      0.140866295     -0.490909100       307.147003       1.58784270    
 -0.420626789      0.270320386     -0.490909100       307.147003       1.58784270    
 -0.420626789      0.270320386     -0.572727323       307.147003       1.58784270    
 -0.479746491      0.140866295     -0.572727323       307.147003       1.58784270    
 -0.500000000       2.84000009E-16 -0.490909100       334.223663       1.58784270    
 -0.479746491      0.140866295     -0.490909100       334.223663       1.58784270    
 -0.479746491      0.140866295     -0.572727323       334.223663       1.58784270    
 -0.500000000       2.84000009E-16 -0.572727323       334.223663       1.58784270    
  0.479746491      0.140866295     -0.572727323       326.730652      -1.55357444    
  0.500000000       0.00000000     -0.572727323       326.730652      -1.55357444    
  0.500000000       0.00000000     -0.654545426       326.730652      -1.55357444    
  0.479746491      0.140866295     -0.654545426       326.730652      -1.55357444    
  0.420626789      0.270320386     -0.572727323       300.260956      -1.55357444    
  0.479746491      0.140866295     -0.572727323       300.260956      -1.55357444    
  0.479746491      0.140866295     -0.654545426       300.260956      -1.55357444    
  0.420626789      0.270320386     -0.654545426       300.260956      -1.55357444    
  0.327430397      0.377874792     -0.572727323       249.465637      -1.55357444    
  0.420626789      0.270320386     -0.572727323       249.465637      -1.55357444    
  0.420626789      0.270320386     -0.654545426       249.465637      -1.55357444    
  0.327430397      0.377874792     -0.654545426       249.465637      -1.55357444    
  0.207707494      0.454816014     -0.572727323       178.460342      -1.55357444    
  0.327430397      0.377874792     -0.572727323       178.460342      -1.55357444    
  0.327430397      0.377874792     -0.654545426       178.460342      -1.55357444    
  0.207707494      0.454816014     -0.654545426       178.460342      -1.55357444    
   7.11574182E-02  0.494910687     -0.572727323       92.9972458      -1.55357432    
  0.207707494      0.454816014     -0.572727323       92.9972458      -1.55357432    
  0.207707494      0.454816014     -0.654545426       92.9972458      -1.55357432    
   7.11574182E-02  0.494910687     -0.654545426       92.9972458      -1.55357432    
  -7.11574182E-02  0.494910687     -0.572727323       2.35387834E-05 -0.944195211    
   7.11574182E-02  0.494910687     -0.572727323       2.35387834E-05 -0.944195211    
   7.11574182E-02  0.494910687     -0.654545426       2.35387834E-05 -0.944195211    
  -7.11574182E-02  0.494910687     -0.654545426       2.35387834E-05 -0.944195211    
 -0.207707494      0.454816014     -0.572727323       92.9971848       1.58801806    
  -7.11574182E-02  0.494910687     -0.572727323       92.9971848       1.58801806    
  -7.11574182E-02  0.494910687     -0.654545426       92.9971848       1.58801806    
 -0.207707494      0.454816014     -0.654545426       92.9971848       1.58801806    
 -0.327430397      0.377874792     -0.572727323       178.460327       1.58801818    
 -0.207707494      0.454816014     -0.572727323       178.460327       1.58801818    
 -0.207707494      0.454816014     -0.654545426       178.460327       1.58801818    
 -0.327430397      0.377874792     -0.654545426       178.460327       1.58801818    
 -0.420626789      0.270320386     -0.572727323       249.465576       1.58801818    
 -0.327430397      0.377874792     -0.572727323       249.465576       1.58801818    
 -0.327430397      0.377874792     -0.654545426       249.465576       1.58801818    
 -0.420626789      0.270320386     -0.654545426       249.465576       1.58801818    
 -0.479746491      0.140866295     -0.572727323       300.260895       1.58801818    
 -0.420626789      0.270320386     -0.572727323       300.260895       1.58801818    
 -0.420626789      0.270320386     -0.654545426       300.260895       1.58801818    