 VARIABLES="X" "Y" "Z" "abs(p) (Pa)" "angle(p) (rad)"
ZONE N=    528,E =     462, F=FEPOINT, ET=QUADRILATERAL
  0.479746491      0.140866295       0.00000000       505.889862      -1.53744495    
  0.500000000       0.00000000       0.00000000       505.889862      -1.53744495    
  0.500000000       0.00000000      -8.18181783E-02   505.889862      -1.53744495    
  0.479746491      0.140866295      -8.18181783E-02   505.889862      -1.53744495    
  0.420626789      0.270320386       0.00000000       464.905792      -1.53744495    
  0.479746491      0.140866295       0.00000000       464.905792      -1.53744495    
  0.479746491      0.140866295      -8.18181783E-02   464.905792      -1.53744495    
  0.420626789      0.270320386      -8.18181783E-02   464.905792      -1.53744495    
  0.327430397      0.377874792       0.00000000       386.257538      -1.53744495    
  0.420626789      0.270320386       0.00000000       386.257538      -1.53744495    
  0.420626789      0.270320386      -8.18181783E-02   386.257538      -1.53744495    
  0.327430397      0.377874792      -8.18181783E-02   386.257538      -1.53744495    
  0.207707494      0.454816014       0.00000000       276.317200      -1.53744507    
  0.327430397      0.377874792       0.00000000       276.317200      -1.53744507    
  0.327430397      0.377874792      -8.18181783E-02   276.317200      -1.53744507    
  0.207707494      0.454816014      -8.18181783E-02   276.317200      -1.53744507    
   7.11574182E-02  0.494910687       0.00000000       143.991150      -1.53744519    
  0.207707494      0.454816014       0.00000000       143.991150      -1.53744519    
  0.207707494      0.454816014      -8.18181783E-02   143.991150      -1.53744519    
   7.11574182E-02  0.494910687      -8.18181783E-02   143.991150      -1.53744519    
  -7.11574182E-02  0.494910687       0.00000000       8.36696126E-05   2.29720235    
   7.11574182E-02  0.494910687       0.00000000       8.36696126E-05   2.29720235    
   7.11574182E-02  0.494910687      -8.18181783E-02   8.36696126E-05   2.29720235    
  -7.11574182E-02  0.494910687      -8.18181783E-02   8.36696126E-05   2.29720235    
 -0.207707494      0.454816014       0.00000000       143.991257       1.60414839    
  -7.11574182E-02  0.494910687       0.00000000       143.991257       1.60414839    
  -7.11574182E-02  0.494910687      -8.18181783E-02   143.991257       1.60414839    
 -0.207707494      0.454816014      -8.18181783E-02   143.991257       1.60414839    
 -0.327430397      0.377874792       0.00000000       276.317352       1.60414803    
 -0.207707494      0.454816014       0.00000000       276.317352       1.60414803    
 -0.207707494      0.454816014      -8.18181783E-02   276.317352       1.60414803    
 -0.327430397      0.377874792      -8.18181783E-02   276.317352       1.60414803    
 -0.420626789      0.270320386       0.00000000       386.257812       1.60414791    
 -0.327430397      0.377874792       0.00000000       386.257812       1.60414791    
 -0.327430397      0.377874792      -8.18181783E-02   386.257812       1.60414791    
 -0.420626789      0.270320386      -8.18181783E-02   386.257812       1.60414791    
 -0.479746491      0.140866295       0.00000000       464.905914       1.60414803    
 -0.420626789      0.270320386       0.00000000       464.905914       1.60414803    
 -0.420626789      0.270320386      -8.18181783E-02   464.905914       1.60414803    
 -0.479746491      0.140866295      -8.18181783E-02   464.905914       1.60414803    
 -0.500000000       2.84000009E-16   0.00000000       505.889801       1.60414803    
 -0.479746491      0.140866295       0.00000000       505.889801       1.60414803    
 -0.479746491      0.140866295      -8.18181783E-02   505.889801       1.60414803    
 -0.500000000       2.84000009E-16  -8.18181783E-02   505.889801       1.60414803    
  0.479746491      0.140866295      -8.18181783E-02   502.881317      -1.53748548    
  0.500000000       0.00000000      -8.18181783E-02   502.881317      -1.53748548    
  0.500000000       0.00000000     -0.163636401       502.881317      -1.53748548    
  0.479746491      0.140866295     -0.163636401       502.881317      -1.53748548    
  0.420626789      0.270320386      -8.18181783E-02   462.140839      -1.53748548    
  0.479746491      0.140866295      -8.18181783E-02   462.140839      -1.53748548    
  0.479746491      0.140866295     -0.163636401       462.140839      -1.53748548    
  0.420626789      0.270320386     -0.163636401       462.140839      -1.53748548    
  0.327430397      0.377874792      -8.18181783E-02   383.960510      -1.53748548    
  0.420626789      0.270320386      -8.18181783E-02   383.960510      -1.53748548    
  0.420626789      0.270320386     -0.163636401       383.960510      -1.53748548    
  0.327430397      0.377874792     -0.163636401       383.960510      -1.53748548    
  0.207707494      0.454816014      -8.18181783E-02   274.673767      -1.53748560    
  0.327430397      0.377874792      -8.18181783E-02   274.673767      -1.53748560    
  0.327430397      0.377874792     -0.163636401       274.673767      -1.53748560    
  0.207707494      0.454816014     -0.163636401       274.673767      -1.53748560    
   7.11574182E-02  0.494910687      -8.18181783E-02   143.134903      -1.53748560    
  0.207707494      0.454816014      -8.18181783E-02   143.134903      -1.53748560    
  0.207707494      0.454816014     -0.163636401       143.134903      -1.53748560    
   7.11574182E-02  0.494910687     -0.163636401       143.134903      -1.53748560    
  -7.11574182E-02  0.494910687      -8.18181783E-02   8.54630707E-05   2.53939199    
   7.11574182E-02  0.494910687      -8.18181783E-02   8.54630707E-05   2.53939199    
   7.11574182E-02  0.494910687     -0.163636401       8.54630707E-05   2.53939199    
  -7.11574182E-02  0.494910687     -0.163636401       8.54630707E-05   2.53939199    
 -0.207707494      0.454816014      -8.18181783E-02   143.134964       1.60410774    
  -7.11574182E-02  0.494910687      -8.18181783E-02   143.134964       1.60410774    
  -7.11574182E-02  0.494910687     -0.163636401       143.134964       1.60410774    
 -0.207707494      0.454816014     -0.163636401       143.134964       1.60410774    
 -0.327430397      0.377874792      -8.18181783E-02   274.674011       1.60410750    
 -0.207707494      0.454816014      -8.18181783E-02   274.674011       1.60410750    
 -0.207707494      0.454816014     -0.163636401       274.674011       1.60410750    
 -0.327430397      0.377874792     -0.163636401       274.674011       1.60410750    
 -0.420626789      0.270320386      -8.18181783E-02   383.960571       1.60410750    
 -0.327430397      0.377874792      -8.18181783E-02   383.960571       1.60410750    
 -0.327430397      0.377874792     -0.163636401       383.960571       1.60410750    
 -0.420626789      0.270320386     -0.163636401       383.960571       1.60410750    
 -0.479746491      0.140866295      -8.18181783E-02   462.140991       1.60410750    
 -0.420626789      0.270320386      -8.18181783E-02   462.140991       1.60410750    
 -0.420626789      0.270320386     -0.163636401       462.140991       1.60410750    
 -0.479746491      0.140866295     -0.163636401       462.140991       1.60410750    
 -0.500000000       2.84000009E-16  -8.18181783E-02   502.881592       1.60410738    
 -0.479746491      0.140866295      -8.18181783E-02   502.881592       1.60410738    
 -0.479746491      0.140866295     -0.163636401       502.881592       1.60410738    
 -0.500000000       2.84000009E-16 -0.163636401       502.881592       1.60410738    
  0.479746491      0.140866295     -0.163636401       499.092743      -1.53750014    
  0.500000000       0.00000000     -0.163636401       499.092743      -1.53750014    
  0.500000000       0.00000000     -0.245454505       499.092743      -1.53750014    
  0.479746491      0.140866295     -0.245454505       499.092743      -1.53750014    
  0.420626789      0.270320386     -0.163636401       458.659241      -1.53750014    
  0.479746491      0.140866295     -0.163636401       458.659241      -1.53750014    
  0.479746491      0.140866295     -0.245454505       458.659241      -1.53750014    
  0.420626789      0.270320386     -0.245454505       458.659241      -1.53750014    
  0.327430397      0.377874792     -0.163636401       381.067871      -1.53750014    
  0.420626789      0.270320386     -0.163636401       381.067871      -1.53750014    
  0.420626789      0.270320386     -0.245454505       381.067871      -1.53750014    
  0.327430397      0.377874792     -0.245454505       381.067871      -1.53750014    
  0.207707494      0.454816014     -0.163636401       272.604553      -1.53750026    
  0.327430397      0.377874792     -0.163636401       272.604553      -1.53750026    
  0.327430397      0.377874792     -0.245454505       272.604553      -1.53750026    
  0.207707494      0.454816014     -0.245454505       272.604553      -1.53750026    
   7.11574182E-02  0.494910687     -0.163636401       142.056564      -1.53750038    
  0.207707494      0.454816014     -0.163636401       142.056564      -1.53750038    
  0.207707494      0.454816014     -0.245454505       142.056564      -1.53750038    
   7.11574182E-02  0.494910687     -0.245454505       142.056564      -1.53750038    
  -7.11574182E-02  0.494910687     -0.163636401       8.60270156E-05   2.39977741    
   7.11574182E-02  0.494910687     -0.163636401       8.60270156E-05   2.39977741    
   7.11574182E-02  0.494910687     -0.245454505       8.60270156E-05   2.39977741    
  -7.11574182E-02  0.494910687     -0.245454505       8.60270156E-05   2.39977741    
 -0.207707494      0.454816014     -0.163636401       142.056671       1.60409319    
  -7.11574182E-02  0.494910687     -0.163636401       142.056671       1.60409319    
  -7.11574182E-02  0.494910687     -0.245454505       142.056671       1.60409319    
 -0.207707494      0.454816014     -0.245454505       142.056671       1.60409319    
 -0.327430397      0.377874792     -0.163636401       272.604675       1.60409296    
 -0.207707494      0.454816014     -0.163636401       272.604675       1.60409296    
 -0.207707494      0.454816014     -0.245454505       272.604675       1.60409296    
 -0.327430397      0.377874792     -0.245454505       272.604675       1.60409296    
 -0.420626789      0.270320386     -0.163636401       381.067963       1.60409284    
 -0.327430397      0.377874792     -0.163636401       381.067963       1.60409284    
 -0.327430397      0.377874792     -0.245454505       381.067963       1.60409284    
 -0.420626789      0.270320386     -0.245454505       381.067963       1.60409284    
 -0.479746491      0.140866295     -0.163636401       458.659393       1.60409284    
 -0.420626789      0.270320386     -0.163636401       458.659393       1.60409284    
 -0.420626789      0.270320386     -0.245454505       458.659393       1.60409284    
 -0.479746491      0.140866295     -0.245454505       458.659393       1.60409284    
 -0.500000000       2.84000009E-16 -0.163636401       499.092926       1.60409284    
 -0.479746491      0.140866295     -0.163636401       499.092926       1.60409284    
 -0.479746491      0.140866295     -0.245454505       499.092926       1.60409284    
 -0.500000000       2.84000009E-16 -0.245454505       499.092926       1.60409284    
  0.479746491      0.140866295     -0.245454505       494.734589      -1.53748882    
  0.500000000       0.00000000     -0.245454505       494.734589      -1.53748882    
  0.500000000       0.00000000     -0.327272713       494.734589      -1.53748882    
  0.479746491      0.140866295     -0.327272713       494.734589      -1.53748882    
  0.420626789      0.270320386     -0.245454505       454.654144      -1.53748870    
  0.479746491      0.140866295     -0.245454505       454.654144      -1.53748870    
  0.479746491      0.140866295     -0.327272713       454.654144      -1.53748870    
  0.420626789      0.270320386     -0.327272713       454.654144      -1.53748870    
  0.327430397      0.377874792     -0.245454505       377.740295      -1.53748882    
  0.420626789      0.270320386     -0.245454505       377.740295      -1.53748882    
  0.420626789      0.270320386     -0.327272713       377.740295      -1.53748882    
  0.327430397      0.377874792     -0.327272713       377.740295      -1.53748882    
  0.207707494      0.454816014     -0.245454505       270.224182      -1.53748894    
  0.327430397      0.377874792     -0.245454505       270.224182      -1.53748894    
  0.327430397      0.377874792     -0.327272713       270.224182      -1.53748894    
  0.207707494      0.454816014     -0.327272713       270.224182      -1.53748894    
   7.11574182E-02  0.494910687     -0.245454505       140.816055      -1.53748894    
  0.207707494      0.454816014     -0.245454505       140.816055      -1.53748894    
  0.207707494      0.454816014     -0.327272713       140.816055      -1.53748894    
   7.11574182E-02  0.494910687     -0.327272713       140.816055      -1.53748894    
  -7.11574182E-02  0.494910687     -0.245454505       8.91158998E-05   2.46486187    
   7.11574182E-02  0.494910687     -0.245454505       8.91158998E-05   2.46486187    
   7.11574182E-02  0.494910687     -0.327272713       8.91158998E-05   2.46486187    
  -7.11574182E-02  0.494910687     -0.327272713       8.91158998E-05   2.46486187    
 -0.207707494      0.454816014     -0.245454505       140.816208       1.60410452    
  -7.11574182E-02  0.494910687     -0.245454505       140.816208       1.60410452    
  -7.11574182E-02  0.494910687     -0.327272713       140.816208       1.60410452    
 -0.207707494      0.454816014     -0.327272713       140.816208       1.60410452    
 -0.327430397      0.377874792     -0.245454505       270.224243       1.60410428    
 -0.207707494      0.454816014     -0.245454505       270.224243       1.60410428    
 -0.207707494      0.454816014     -0.327272713       270.224243       1.60410428    
 -0.327430397      0.377874792     -0.327272713       270.224243       1.60410428    
 -0.420626789      0.270320386     -0.245454505       377.740448       1.60410416    
 -0.327430397      0.377874792     -0.245454505       377.740448       1.60410416    
 -0.327430397      0.377874792     -0.327272713       377.740448       1.60410416    
 -0.420626789      0.270320386     -0.327272713       377.740448       1.60410416    
 -0.479746491      0.140866295     -0.245454505       454.654419       1.60410416    
 -0.420626789      0.270320386     -0.245454505       454.654419       1.60410416    
 -0.420626789      0.270320386     -0.327272713       454.654419       1.60410416    
 -0.479746491      0.140866295     -0.327272713       454.654419       1.60410416    
 -0.500000000       2.84000009E-16 -0.245454505       494.734894       1.60410416    
 -0.479746491      0.140866295     -0.245454505       494.734894       1.60410416    
 -0.479746491      0.140866295     -0.327272713       494.734894       1.60410416    
 -0.500000000       2.84000009E-16 -0.327272713       494.734894       1.60410416    
  0.479746491      0.140866295     -0.327272713       489.531036      -1.53743792    
  0.500000000       0.00000000     -0.327272713       489.531036      -1.53743792    
  0.500000000       0.00000000     -0.409090906       489.531036      -1.53743792    
  0.479746491      0.140866295     -0.409090906       489.531036      -1.53743792    
  0.420626789      0.270320386     -0.327272713       449.871918      -1.53743792    
  0.479746491      0.140866295     -0.327272713       449.871918      -1.53743792    
  0.479746491      0.140866295     -0.409090906       449.871918      -1.53743792    
  0.420626789      0.270320386     -0.409090906       449.871918      -1.53743792    
  0.327430397      0.377874792     -0.327272713       373.767181      -1.53743792    
  0.420626789      0.270320386     -0.327272713       373.767181      -1.53743792    
  0.420626789      0.270320386     -0.409090906       373.767181      -1.53743792    
  0.327430397      0.377874792     -0.409090906       373.767181      -1.53743792    
  0.207707494      0.454816014     -0.327272713       267.381958      -1.53743804    
  0.327430397      0.377874792     -0.327272713       267.381958      -1.53743804    
  0.327430397      0.377874792     -0.409090906       267.381958      -1.53743804    
  0.207707494      0.454816014     -0.409090906       267.381958      -1.53743804    
   7.11574182E-02  0.494910687     -0.327272713       139.335007      -1.53743815    
  0.207707494      0.454816014     -0.327272713       139.335007      -1.53743815    
  0.207707494      0.454816014     -0.409090906       139.335007      -1.53743815    
   7.11574182E-02  0.494910687     -0.409090906       139.335007      -1.53743815    
  -7.11574182E-02  0.494910687     -0.327272713       9.02227985E-05   2.36577606    
   7.11574182E-02  0.494910687     -0.327272713       9.02227985E-05   2.36577606    
   7.11574182E-02  0.494910687     -0.409090906       9.02227985E-05   2.36577606    
  -7.11574182E-02  0.494910687     -0.409090906       9.02227985E-05   2.36577606    
 -0.207707494      0.454816014     -0.327272713       139.335159       1.60415542    
  -7.11574182E-02  0.494910687     -0.327272713       139.335159       1.60415542    
  -7.11574182E-02  0.494910687     -0.409090906       139.335159       1.60415542    
 -0.207707494      0.454816014     -0.409090906       139.335159       1.60415542    
 -0.327430397      0.377874792     -0.327272713       267.382172       1.60415506    
 -0.207707494      0.454816014     -0.327272713       267.382172       1.60415506    
 -0.207707494      0.454816014     -0.409090906       267.382172       1.60415506    
 -0.327430397      0.377874792     -0.409090906       267.382172       1.60415506    
 -0.420626789      0.270320386     -0.327272713       373.767395       1.60415506    
 -0.327430397      0.377874792     -0.327272713       373.767395       1.60415506    
 -0.327430397      0.377874792     -0.409090906       373.767395       1.60415506    
 -0.420626789      0.270320386     -0.409090906       373.767395       1.60415506    
 -0.479746491      0.140866295     -0.327272713       449.872345       1.60415506    
 -0.420626789      0.270320386     -0.327272713       449.872345       1.60415506    
 -0.420626789      0.270320386     -0.409090906       449.872345       1.60415506    
 -0.479746491      0.140866295     -0.409090906       449.872345       1.60415506    
 -0.500000000       2.84000009E-16 -0.327272713       489.531281       1.60415494    
 -0.479746491      0.140866295     -0.327272713       489.531281       1.60415494    
 -0.479746491      0.140866295     -0.409090906       489.531281       1.60415494    
 -0.500000000       2.84000009E-16 -0.409090906       489.531281       1.60415494    
  0.479746491      0.140866295     -0.409090906       483.104797      -1.53733087    
  0.500000000       0.00000000     -0.409090906       483.104797      -1.53733087    
  0.500000000       0.00000000     -0.490909100       483.104797      -1.53733087    
  0.479746491      0.140866295     -0.490909100       483.104797      -1.53733087    
  0.420626789      0.270320386     -0.409090906       443.966339      -1.53733075    
  0.479746491      0.140866295     -0.409090906       443.966339      -1.53733075    
  0.479746491      0.140866295     -0.490909100       443.966339      -1.53733075    
  0.420626789      0.270320386     -0.490909100       443.966339      -1.53733075    
  0.327430397      0.377874792     -0.409090906       368.860687      -1.53733087    
  0.420626789      0.270320386     -0.409090906       368.860687      -1.53733087    
  0.420626789      0.270320386     -0.490909100       368.860687      -1.53733087    
  0.327430397      0.377874792     -0.490909100       368.860687      -1.53733087    
  0.207707494      0.454816014     -0.409090906       263.871918      -1.53733099    
  0.327430397      0.377874792     -0.409090906       263.871918      -1.53733099    
  0.327430397      0.377874792     -0.490909100       263.871918      -1.53733099    
  0.207707494      0.454816014     -0.490909100       263.871918      -1.53733099    
   7.11574182E-02  0.494910687     -0.409090906       137.505829      -1.53733110    
  0.207707494      0.454816014     -0.409090906       137.505829      -1.53733110    
  0.207707494      0.454816014     -0.490909100       137.505829      -1.53733110    
   7.11574182E-02  0.494910687     -0.490909100       137.505829      -1.53733110    
  -7.11574182E-02  0.494910687     -0.409090906       7.78452159E-05   2.45051646    
   7.11574182E-02  0.494910687     -0.409090906       7.78452159E-05   2.45051646    
   7.11574182E-02  0.494910687     -0.490909100       7.78452159E-05   2.45051646    
  -7.11574182E-02  0.494910687     -0.490909100       7.78452159E-05   2.45051646    
 -0.207707494      0.454816014     -0.409090906       137.505920       1.60426235    
  -7.11574182E-02  0.494910687     -0.409090906       137.505920       1.60426235    
  -7.11574182E-02  0.494910687     -0.490909100       137.505920       1.60426235    
 -0.207707494      0.454816014     -0.490909100       137.505920       1.60426235    
 -0.327430397      0.377874792     -0.409090906       263.872131       1.60426211    
 -0.207707494      0.454816014     -0.409090906       263.872131       1.60426211    
 -0.207707494      0.454816014     -0.490909100       263.872131       1.60426211    
 -0.327430397      0.377874792     -0.490909100       263.872131       1.60426211    
 -0.420626789      0.270320386     -0.409090906       368.860687       1.60426211    
 -0.327430397      0.377874792     -0.409090906       368.860687       1.60426211    
 -0.327430397      0.377874792     -0.490909100       368.860687       1.60426211    
 -0.420626789      0.270320386     -0.490909100       368.860687       1.60426211    
 -0.479746491      0.140866295     -0.409090906       443.966522       1.60426211    
 -0.420626789      0.270320386     -0.409090906       443.966522       1.60426211    
 -0.420626789      0.270320386     -0.490909100       443.966522       1.60426211    
 -0.479746491      0.140866295     -0.490909100       443.966522       1.60426211    
 -0.500000000       2.84000009E-16 -0.409090906       483.104950       1.60426199    
 -0.479746491      0.140866295     -0.409090906       483.104950       1.60426199    
 -0.479746491      0.140866295     -0.490909100       483.104950       1.60426199    
 -0.500000000       2.84000009E-16 -0.490909100       483.104950       1.60426199    
  0.479746491      0.140866295     -0.490909100       474.908295      -1.53714335    
  0.500000000       0.00000000     -0.490909100       474.908295      -1.53714335    
  0.500000000       0.00000000     -0.572727323       474.908295      -1.53714335    
  0.479746491      0.140866295     -0.572727323       474.908295      -1.53714335    
  0.420626789      0.270320386     -0.490909100       436.433838      -1.53714335    
  0.479746491      0.140866295     -0.490909100       436.433838      -1.53714335    
  0.479746491      0.140866295     -0.572727323       436.433838      -1.53714335    
  0.420626789      0.270320386     -0.572727323       436.433838      -1.53714335    
  0.327430397      0.377874792     -0.490909100       362.602417      -1.53714335    
  0.420626789      0.270320386     -0.490909100       362.602417      -1.53714335    
  0.420626789      0.270320386     -0.572727323       362.602417      -1.53714335    
  0.327430397      0.377874792     -0.572727323       362.602417      -1.53714335    
  0.207707494      0.454816014     -0.490909100       259.394958      -1.53714347    
  0.327430397      0.377874792     -0.490909100       259.394958      -1.53714347    
  0.327430397      0.377874792     -0.572727323       259.394958      -1.53714347    
  0.207707494      0.454816014     -0.572727323       259.394958      -1.53714347    
   7.11574182E-02  0.494910687     -0.490909100       135.172836      -1.53714359    
  0.207707494      0.454816014     -0.490909100       135.172836      -1.53714359    
  0.207707494      0.454816014     -0.572727323       135.172836      -1.53714359    
   7.11574182E-02  0.494910687     -0.572727323       135.172836      -1.53714359    
  -7.11574182E-02  0.494910687     -0.490909100       7.24532365E-05   2.52922916    
   7.11574182E-02  0.494910687     -0.490909100       7.24532365E-05   2.52922916    
   7.11574182E-02  0.494910687     -0.572727323       7.24532365E-05   2.52922916    
  -7.11574182E-02  0.494910687     -0.572727323       7.24532365E-05   2.52922916    
 -0.207707494      0.454816014     -0.490909100       135.173004       1.60444987    
  -7.11574182E-02  0.494910687     -0.490909100       135.173004       1.60444987    
  -7.11574182E-02  0.494910687     -0.572727323       135.173004       1.60444987    
 -0.207707494      0.454816014     -0.572727323       135.173004       1.60444987    
 -0.327430397      0.377874792     -0.490909100       259.395020       1.60444963    
 -0.207707494      0.454816014     -0.490909100       259.395020       1.60444963    
 -0.207707494      0.454816014     -0.572727323       259.395020       1.60444963    
 -0.327430397      0.377874792     -0.572727323       259.395020       1.60444963    
 -0.420626789      0.270320386     -0.490909100       362.602478       1.60444963    
 -0.327430397      0.377874792     -0.490909100       362.602478       1.60444963    
 -0.327430397      0.377874792     -0.572727323       362.602478       1.60444963    
 -0.420626789      0.270320386     -0.572727323       362.602478       1.60444963    
 -0.479746491      0.140866295     -0.490909100       436.433899       1.60444963    
 -0.420626789      0.270320386     -0.490909100       436.433899       1.60444963    
 -0.420626789      0.270320386     -0.572727323       436.433899       1.60444963    
 -0.479746491      0.140866295     -0.572727323       436.433899       1.60444963    
 -0.500000000       2.84000009E-16 -0.490909100       474.908478       1.60444951    
 -0.479746491      0.140866295     -0.490909100       474.908478       1.60444951    
 -0.479746491      0.140866295     -0.572727323       474.908478       1.60444951    
 -0.500000000       2.84000009E-16 -0.572727323       474.908478       1.60444951    
  0.479746491      0.140866295     -0.572727323       463.962921      -1.53683150    
  0.500000000       0.00000000     -0.572727323       463.962921      -1.53683150    
  0.500000000       0.00000000     -0.654545426       463.962921      -1.53683150    
  0.479746491      0.140866295     -0.654545426       463.962921      -1.53683150    
  0.420626789      0.270320386     -0.572727323       426.375366      -1.53683150    
  0.479746491      0.140866295     -0.572727323       426.375366      -1.53683150    
  0.479746491      0.140866295     -0.654545426       426.375366      -1.53683150    
  0.420626789      0.270320386     -0.654545426       426.375366      -1.53683150    
  0.327430397      0.377874792     -0.572727323       354.245575      -1.53683150    
  0.420626789      0.270320386     -0.572727323       354.245575      -1.53683150    
  0.420626789      0.270320386     -0.654545426       354.245575      -1.53683150    
  0.327430397      0.377874792     -0.654545426       354.245575      -1.53683150    
  0.207707494      0.454816014     -0.572727323       253.416641      -1.53683162    
  0.327430397      0.377874792     -0.572727323       253.416641      -1.53683162    
  0.327430397      0.377874792     -0.654545426       253.416641      -1.53683162    
  0.207707494      0.454816014     -0.654545426       253.416641      -1.53683162    
   7.11574182E-02  0.494910687     -0.572727323       132.057480      -1.53683174    
  0.207707494      0.454816014     -0.572727323       132.057480      -1.53683174    
  0.207707494      0.454816014     -0.654545426       132.057480      -1.53683174    
   7.11574182E-02  0.494910687     -0.654545426       132.057480      -1.53683174    
  -7.11574182E-02  0.494910687     -0.572727323       7.99447880E-05   2.45768046    
   7.11574182E-02  0.494910687     -0.572727323       7.99447880E-05   2.45768046    
   7.11574182E-02  0.494910687     -0.654545426       7.99447880E-05   2.45768046    
  -7.11574182E-02  0.494910687     -0.654545426       7.99447880E-05   2.45768046    
 -0.207707494      0.454816014     -0.572727323       132.057648       1.60476184    
  -7.11574182E-02  0.494910687     -0.572727323       132.057648       1.60476184    
  -7.11574182E-02  0.494910687     -0.654545426       132.057648       1.60476184    
 -0.207707494      0.454816014     -0.654545426       132.057648       1.60476184    
 -0.327430397      0.377874792     -0.572727323       253.416855       1.60476148    
 -0.207707494      0.454816014     -0.572727323       253.416855       1.60476148    
 -0.207707494      0.454816014     -0.654545426       253.416855       1.60476148    
 -0.327430397      0.377874792     -0.654545426       253.416855       1.60476148    
 -0.420626789      0.270320386     -0.572727323       354.245728       1.60476136    
 -0.327430397      0.377874792     -0.572727323       354.245728       1.60476136    
 -0.327430397      0.377874792     -0.654545426       354.245728       1.60476136    
 -0.420626789      0.270320386     -0.654545426       354.245728       1.60476136    
 -0.479746491      0.140866295     -0.572727323       426.375732       1.60476136    
 -0.420626789      0.270320386     -0.572727323       426.375732       1.60476136    
 -0.420626789      0.270320386     -0.654545426       426.375732       1.60476136    