 VARIABLES="X" "Y" "Z" "abs(p) (Pa)" "angle(p) (rad)"
ZONE N=    528,E =     462, F=FEPOINT, ET=QUADRILATERAL
  0.479746491      0.140866295       0.00000000       7337.42920      -1.45466948    
  0.500000000       0.00000000       0.00000000       7337.42920      -1.45466948    
  0.500000000       0.00000000      -8.18181783E-02   7337.42920      -1.45466948    
  0.479746491      0.140866295      -8.18181783E-02   7337.42920      -1.45466948    
  0.420626789      0.270320386       0.00000000       6742.99316      -1.45466948    
  0.479746491      0.140866295       0.00000000       6742.99316      -1.45466948    
  0.479746491      0.140866295      -8.18181783E-02   6742.99316      -1.45466948    
  0.420626789      0.270320386      -8.18181783E-02   6742.99316      -1.45466948    
  0.327430397      0.377874792       0.00000000       5602.28076      -1.45466948    
  0.420626789      0.270320386       0.00000000       5602.28076      -1.45466948    
  0.420626789      0.270320386      -8.18181783E-02   5602.28076      -1.45466948    
  0.327430397      0.377874792      -8.18181783E-02   5602.28076      -1.45466948    
  0.207707494      0.454816014       0.00000000       4007.70386      -1.45466948    
  0.327430397      0.377874792       0.00000000       4007.70386      -1.45466948    
  0.327430397      0.377874792      -8.18181783E-02   4007.70386      -1.45466948    
  0.207707494      0.454816014      -8.18181783E-02   4007.70386      -1.45466948    
   7.11574182E-02  0.494910687       0.00000000       2088.44946      -1.45466948    
  0.207707494      0.454816014       0.00000000       2088.44946      -1.45466948    
  0.207707494      0.454816014      -8.18181783E-02   2088.44946      -1.45466948    
   7.11574182E-02  0.494910687      -8.18181783E-02   2088.44946      -1.45466948    
  -7.11574182E-02  0.494910687       0.00000000       5.89121366E-04   2.60235333    
   7.11574182E-02  0.494910687       0.00000000       5.89121366E-04   2.60235333    
   7.11574182E-02  0.494910687      -8.18181783E-02   5.89121366E-04   2.60235333    
  -7.11574182E-02  0.494910687      -8.18181783E-02   5.89121366E-04   2.60235333    
 -0.207707494      0.454816014       0.00000000       2088.45044       1.68692350    
  -7.11574182E-02  0.494910687       0.00000000       2088.45044       1.68692350    
  -7.11574182E-02  0.494910687      -8.18181783E-02   2088.45044       1.68692350    
 -0.207707494      0.454816014      -8.18181783E-02   2088.45044       1.68692350    
 -0.327430397      0.377874792       0.00000000       4007.70508       1.68692350    
 -0.207707494      0.454816014       0.00000000       4007.70508       1.68692350    
 -0.207707494      0.454816014      -8.18181783E-02   4007.70508       1.68692350    
 -0.327430397      0.377874792      -8.18181783E-02   4007.70508       1.68692350    
 -0.420626789      0.270320386       0.00000000       5602.28174       1.68692338    
 -0.327430397      0.377874792       0.00000000       5602.28174       1.68692338    
 -0.327430397      0.377874792      -8.18181783E-02   5602.28174       1.68692338    
 -0.420626789      0.270320386      -8.18181783E-02   5602.28174       1.68692338    
 -0.479746491      0.140866295       0.00000000       6742.99365       1.68692338    
 -0.420626789      0.270320386       0.00000000       6742.99365       1.68692338    
 -0.420626789      0.270320386      -8.18181783E-02   6742.99365       1.68692338    
 -0.479746491      0.140866295      -8.18181783E-02   6742.99365       1.68692338    
 -0.500000000       2.84000009E-16   0.00000000       7337.43115       1.68692327    
 -0.479746491      0.140866295       0.00000000       7337.43115       1.68692327    
 -0.479746491      0.140866295      -8.18181783E-02   7337.43115       1.68692327    
 -0.500000000       2.84000009E-16  -8.18181783E-02   7337.43115       1.68692327    
  0.479746491      0.140866295      -8.18181783E-02   7182.71875      -1.45490384    
  0.500000000       0.00000000      -8.18181783E-02   7182.71875      -1.45490384    
  0.500000000       0.00000000     -0.163636401       7182.71875      -1.45490384    
  0.479746491      0.140866295     -0.163636401       7182.71875      -1.45490384    
  0.420626789      0.270320386      -8.18181783E-02   6600.81836      -1.45490396    
  0.479746491      0.140866295      -8.18181783E-02   6600.81836      -1.45490396    
  0.479746491      0.140866295     -0.163636401       6600.81836      -1.45490396    
  0.420626789      0.270320386     -0.163636401       6600.81836      -1.45490396    
  0.327430397      0.377874792      -8.18181783E-02   5484.15527      -1.45490396    
  0.420626789      0.270320386      -8.18181783E-02   5484.15527      -1.45490396    
  0.420626789      0.270320386     -0.163636401       5484.15527      -1.45490396    
  0.327430397      0.377874792     -0.163636401       5484.15527      -1.45490396    
  0.207707494      0.454816014      -8.18181783E-02   3923.20337      -1.45490384    
  0.327430397      0.377874792      -8.18181783E-02   3923.20337      -1.45490384    
  0.327430397      0.377874792     -0.163636401       3923.20337      -1.45490384    
  0.207707494      0.454816014     -0.163636401       3923.20337      -1.45490384    
   7.11574182E-02  0.494910687      -8.18181783E-02   2044.41418      -1.45490396    
  0.207707494      0.454816014      -8.18181783E-02   2044.41418      -1.45490396    
  0.207707494      0.454816014     -0.163636401       2044.41418      -1.45490396    
   7.11574182E-02  0.494910687     -0.163636401       2044.41418      -1.45490396    
  -7.11574182E-02  0.494910687      -8.18181783E-02   4.77357098E-04   2.98745465    
   7.11574182E-02  0.494910687      -8.18181783E-02   4.77357098E-04   2.98745465    
   7.11574182E-02  0.494910687     -0.163636401       4.77357098E-04   2.98745465    
  -7.11574182E-02  0.494910687     -0.163636401       4.77357098E-04   2.98745465    
 -0.207707494      0.454816014      -8.18181783E-02   2044.41565       1.68668914    
  -7.11574182E-02  0.494910687      -8.18181783E-02   2044.41565       1.68668914    
  -7.11574182E-02  0.494910687     -0.163636401       2044.41565       1.68668914    
 -0.207707494      0.454816014     -0.163636401       2044.41565       1.68668914    
 -0.327430397      0.377874792      -8.18181783E-02   3923.20483       1.68668902    
 -0.207707494      0.454816014      -8.18181783E-02   3923.20483       1.68668902    
 -0.207707494      0.454816014     -0.163636401       3923.20483       1.68668902    
 -0.327430397      0.377874792     -0.163636401       3923.20483       1.68668902    
 -0.420626789      0.270320386      -8.18181783E-02   5484.15479       1.68668902    
 -0.327430397      0.377874792      -8.18181783E-02   5484.15479       1.68668902    
 -0.327430397      0.377874792     -0.163636401       5484.15479       1.68668902    
 -0.420626789      0.270320386     -0.163636401       5484.15479       1.68668902    
 -0.479746491      0.140866295      -8.18181783E-02   6600.81934       1.68668890    
 -0.420626789      0.270320386      -8.18181783E-02   6600.81934       1.68668890    
 -0.420626789      0.270320386     -0.163636401       6600.81934       1.68668890    
 -0.479746491      0.140866295     -0.163636401       6600.81934       1.68668890    
 -0.500000000       2.84000009E-16  -8.18181783E-02   7182.72021       1.68668890    
 -0.479746491      0.140866295      -8.18181783E-02   7182.72021       1.68668890    
 -0.479746491      0.140866295     -0.163636401       7182.72021       1.68668890    
 -0.500000000       2.84000009E-16 -0.163636401       7182.72021       1.68668890    
  0.479746491      0.140866295     -0.163636401       7029.31836      -1.45506811    
  0.500000000       0.00000000     -0.163636401       7029.31836      -1.45506811    
  0.500000000       0.00000000     -0.245454505       7029.31836      -1.45506811    
  0.479746491      0.140866295     -0.245454505       7029.31836      -1.45506811    
  0.420626789      0.270320386     -0.163636401       6459.84473      -1.45506811    
  0.479746491      0.140866295     -0.163636401       6459.84473      -1.45506811    
  0.479746491      0.140866295     -0.245454505       6459.84473      -1.45506811    
  0.420626789      0.270320386     -0.245454505       6459.84473      -1.45506811    
  0.327430397      0.377874792     -0.163636401       5367.03516      -1.45506823    
  0.420626789      0.270320386     -0.163636401       5367.03516      -1.45506823    
  0.420626789      0.270320386     -0.245454505       5367.03516      -1.45506823    
  0.327430397      0.377874792     -0.245454505       5367.03516      -1.45506823    
  0.207707494      0.454816014     -0.163636401       3839.41577      -1.45506811    
  0.327430397      0.377874792     -0.163636401       3839.41577      -1.45506811    
  0.327430397      0.377874792     -0.245454505       3839.41577      -1.45506811    
  0.207707494      0.454816014     -0.245454505       3839.41577      -1.45506811    
   7.11574182E-02  0.494910687     -0.163636401       2000.75330      -1.45506835    
  0.207707494      0.454816014     -0.163636401       2000.75330      -1.45506835    
  0.207707494      0.454816014     -0.245454505       2000.75330      -1.45506835    
   7.11574182E-02  0.494910687     -0.245454505       2000.75330      -1.45506835    
  -7.11574182E-02  0.494910687     -0.163636401       6.48934394E-04   2.86404753    
   7.11574182E-02  0.494910687     -0.163636401       6.48934394E-04   2.86404753    
   7.11574182E-02  0.494910687     -0.245454505       6.48934394E-04   2.86404753    
  -7.11574182E-02  0.494910687     -0.245454505       6.48934394E-04   2.86404753    
 -0.207707494      0.454816014     -0.163636401       2000.75427       1.68652475    
  -7.11574182E-02  0.494910687     -0.163636401       2000.75427       1.68652475    
  -7.11574182E-02  0.494910687     -0.245454505       2000.75427       1.68652475    
 -0.207707494      0.454816014     -0.245454505       2000.75427       1.68652475    
 -0.327430397      0.377874792     -0.163636401       3839.41724       1.68652463    
 -0.207707494      0.454816014     -0.163636401       3839.41724       1.68652463    
 -0.207707494      0.454816014     -0.245454505       3839.41724       1.68652463    
 -0.327430397      0.377874792     -0.245454505       3839.41724       1.68652463    
 -0.420626789      0.270320386     -0.163636401       5367.03516       1.68652463    
 -0.327430397      0.377874792     -0.163636401       5367.03516       1.68652463    
 -0.327430397      0.377874792     -0.245454505       5367.03516       1.68652463    
 -0.420626789      0.270320386     -0.245454505       5367.03516       1.68652463    
 -0.479746491      0.140866295     -0.163636401       6459.84521       1.68652475    
 -0.420626789      0.270320386     -0.163636401       6459.84521       1.68652475    
 -0.420626789      0.270320386     -0.245454505       6459.84521       1.68652475    
 -0.479746491      0.140866295     -0.245454505       6459.84521       1.68652475    
 -0.500000000       2.84000009E-16 -0.163636401       7029.31934       1.68652463    
 -0.479746491      0.140866295     -0.163636401       7029.31934       1.68652463    
 -0.479746491      0.140866295     -0.245454505       7029.31934       1.68652463    
 -0.500000000       2.84000009E-16 -0.245454505       7029.31934       1.68652463    
  0.479746491      0.140866295     -0.245454505       6878.71680      -1.45513213    
  0.500000000       0.00000000     -0.245454505       6878.71680      -1.45513213    
  0.500000000       0.00000000     -0.327272713       6878.71680      -1.45513213    
  0.479746491      0.140866295     -0.327272713       6878.71680      -1.45513213    
  0.420626789      0.270320386     -0.245454505       6321.44482      -1.45513213    
  0.479746491      0.140866295     -0.245454505       6321.44482      -1.45513213    
  0.479746491      0.140866295     -0.327272713       6321.44482      -1.45513213    
  0.420626789      0.270320386     -0.327272713       6321.44482      -1.45513213    
  0.327430397      0.377874792     -0.245454505       5252.04639      -1.45513225    
  0.420626789      0.270320386     -0.245454505       5252.04639      -1.45513225    
  0.420626789      0.270320386     -0.327272713       5252.04639      -1.45513225    
  0.327430397      0.377874792     -0.327272713       5252.04639      -1.45513225    
  0.207707494      0.454816014     -0.245454505       3757.15771      -1.45513225    
  0.327430397      0.377874792     -0.245454505       3757.15771      -1.45513225    
  0.327430397      0.377874792     -0.327272713       3757.15771      -1.45513225    
  0.207707494      0.454816014     -0.327272713       3757.15771      -1.45513225    
   7.11574182E-02  0.494910687     -0.245454505       1957.88757      -1.45513237    
  0.207707494      0.454816014     -0.245454505       1957.88757      -1.45513237    
  0.207707494      0.454816014     -0.327272713       1957.88757      -1.45513237    
   7.11574182E-02  0.494910687     -0.327272713       1957.88757      -1.45513237    
  -7.11574182E-02  0.494910687     -0.245454505       6.32849522E-04   2.83774781    
   7.11574182E-02  0.494910687     -0.245454505       6.32849522E-04   2.83774781    
   7.11574182E-02  0.494910687     -0.327272713       6.32849522E-04   2.83774781    
  -7.11574182E-02  0.494910687     -0.327272713       6.32849522E-04   2.83774781    
 -0.207707494      0.454816014     -0.245454505       1957.88794       1.68646085    
  -7.11574182E-02  0.494910687     -0.245454505       1957.88794       1.68646085    
  -7.11574182E-02  0.494910687     -0.327272713       1957.88794       1.68646085    
 -0.207707494      0.454816014     -0.327272713       1957.88794       1.68646085    
 -0.327430397      0.377874792     -0.245454505       3757.15918       1.68646073    
 -0.207707494      0.454816014     -0.245454505       3757.15918       1.68646073    
 -0.207707494      0.454816014     -0.327272713       3757.15918       1.68646073    
 -0.327430397      0.377874792     -0.327272713       3757.15918       1.68646073    
 -0.420626789      0.270320386     -0.245454505       5252.04541       1.68646073    
 -0.327430397      0.377874792     -0.245454505       5252.04541       1.68646073    
 -0.327430397      0.377874792     -0.327272713       5252.04541       1.68646073    
 -0.420626789      0.270320386     -0.327272713       5252.04541       1.68646073    
 -0.479746491      0.140866295     -0.245454505       6321.44531       1.68646061    
 -0.420626789      0.270320386     -0.245454505       6321.44531       1.68646061    
 -0.420626789      0.270320386     -0.327272713       6321.44531       1.68646061    
 -0.479746491      0.140866295     -0.327272713       6321.44531       1.68646061    
 -0.500000000       2.84000009E-16 -0.245454505       6878.71875       1.68646061    
 -0.479746491      0.140866295     -0.245454505       6878.71875       1.68646061    
 -0.479746491      0.140866295     -0.327272713       6878.71875       1.68646061    
 -0.500000000       2.84000009E-16 -0.327272713       6878.71875       1.68646061    
  0.479746491      0.140866295     -0.327272713       6726.62646      -1.45503724    
  0.500000000       0.00000000     -0.327272713       6726.62646      -1.45503724    
  0.500000000       0.00000000     -0.409090906       6726.62646      -1.45503724    
  0.479746491      0.140866295     -0.409090906       6726.62646      -1.45503724    
  0.420626789      0.270320386     -0.327272713       6181.67871      -1.45503724    
  0.479746491      0.140866295     -0.327272713       6181.67871      -1.45503724    
  0.479746491      0.140866295     -0.409090906       6181.67871      -1.45503724    
  0.420626789      0.270320386     -0.409090906       6181.67871      -1.45503724    
  0.327430397      0.377874792     -0.327272713       5135.92480      -1.45503724    
  0.420626789      0.270320386     -0.327272713       5135.92480      -1.45503724    
  0.420626789      0.270320386     -0.409090906       5135.92480      -1.45503724    
  0.327430397      0.377874792     -0.409090906       5135.92480      -1.45503724    
  0.207707494      0.454816014     -0.327272713       3674.08716      -1.45503724    
  0.327430397      0.377874792     -0.327272713       3674.08716      -1.45503724    
  0.327430397      0.377874792     -0.409090906       3674.08716      -1.45503724    
  0.207707494      0.454816014     -0.409090906       3674.08716      -1.45503724    
   7.11574182E-02  0.494910687     -0.327272713       1914.59827      -1.45503736    
  0.207707494      0.454816014     -0.327272713       1914.59827      -1.45503736    
  0.207707494      0.454816014     -0.409090906       1914.59827      -1.45503736    
   7.11574182E-02  0.494910687     -0.409090906       1914.59827      -1.45503736    
  -7.11574182E-02  0.494910687     -0.327272713       5.93005447E-04   2.43457913    
   7.11574182E-02  0.494910687     -0.327272713       5.93005447E-04   2.43457913    
   7.11574182E-02  0.494910687     -0.409090906       5.93005447E-04   2.43457913    
  -7.11574182E-02  0.494910687     -0.409090906       5.93005447E-04   2.43457913    
 -0.207707494      0.454816014     -0.327272713       1914.59814       1.68655586    
  -7.11574182E-02  0.494910687     -0.327272713       1914.59814       1.68655586    
  -7.11574182E-02  0.494910687     -0.409090906       1914.59814       1.68655586    
 -0.207707494      0.454816014     -0.409090906       1914.59814       1.68655586    
 -0.327430397      0.377874792     -0.327272713       3674.08716       1.68655562    
 -0.207707494      0.454816014     -0.327272713       3674.08716       1.68655562    
 -0.207707494      0.454816014     -0.409090906       3674.08716       1.68655562    
 -0.327430397      0.377874792     -0.409090906       3674.08716       1.68655562    
 -0.420626789      0.270320386     -0.327272713       5135.92676       1.68655550    
 -0.327430397      0.377874792     -0.327272713       5135.92676       1.68655550    
 -0.327430397      0.377874792     -0.409090906       5135.92676       1.68655550    
 -0.420626789      0.270320386     -0.409090906       5135.92676       1.68655550    
 -0.479746491      0.140866295     -0.327272713       6181.67871       1.68655562    
 -0.420626789      0.270320386     -0.327272713       6181.67871       1.68655562    
 -0.420626789      0.270320386     -0.409090906       6181.67871       1.68655562    
 -0.479746491      0.140866295     -0.409090906       6181.67871       1.68655562    
 -0.500000000       2.84000009E-16 -0.327272713       6726.62744       1.68655562    
 -0.479746491      0.140866295     -0.327272713       6726.62744       1.68655562    
 -0.479746491      0.140866295     -0.409090906       6726.62744       1.68655562    
 -0.500000000       2.84000009E-16 -0.409090906       6726.62744       1.68655562    
  0.479746491      0.140866295     -0.409090906       6568.26221      -1.45472383    
  0.500000000       0.00000000     -0.409090906       6568.26221      -1.45472383    
  0.500000000       0.00000000     -0.490909100       6568.26221      -1.45472383    
  0.479746491      0.140866295     -0.490909100       6568.26221      -1.45472383    
  0.420626789      0.270320386     -0.409090906       6036.13818      -1.45472383    
  0.479746491      0.140866295     -0.409090906       6036.13818      -1.45472383    
  0.479746491      0.140866295     -0.490909100       6036.13818      -1.45472383    
  0.420626789      0.270320386     -0.490909100       6036.13818      -1.45472383    
  0.327430397      0.377874792     -0.409090906       5015.00586      -1.45472395    
  0.420626789      0.270320386     -0.409090906       5015.00586      -1.45472395    
  0.420626789      0.270320386     -0.490909100       5015.00586      -1.45472395    
  0.327430397      0.377874792     -0.490909100       5015.00586      -1.45472395    
  0.207707494      0.454816014     -0.409090906       3587.58643      -1.45472395    
  0.327430397      0.377874792     -0.409090906       3587.58643      -1.45472395    
  0.327430397      0.377874792     -0.490909100       3587.58643      -1.45472395    
  0.207707494      0.454816014     -0.490909100       3587.58643      -1.45472395    
   7.11574182E-02  0.494910687     -0.409090906       1869.52148      -1.45472395    
  0.207707494      0.454816014     -0.409090906       1869.52148      -1.45472395    
  0.207707494      0.454816014     -0.490909100       1869.52148      -1.45472395    
   7.11574182E-02  0.494910687     -0.490909100       1869.52148      -1.45472395    
  -7.11574182E-02  0.494910687     -0.409090906       6.78892015E-04   2.30393887    
   7.11574182E-02  0.494910687     -0.409090906       6.78892015E-04   2.30393887    
   7.11574182E-02  0.494910687     -0.490909100       6.78892015E-04   2.30393887    
  -7.11574182E-02  0.494910687     -0.490909100       6.78892015E-04   2.30393887    
 -0.207707494      0.454816014     -0.409090906       1869.52185       1.68686914    
  -7.11574182E-02  0.494910687     -0.409090906       1869.52185       1.68686914    
  -7.11574182E-02  0.494910687     -0.490909100       1869.52185       1.68686914    
 -0.207707494      0.454816014     -0.490909100       1869.52185       1.68686914    
 -0.327430397      0.377874792     -0.409090906       3587.58765       1.68686903    
 -0.207707494      0.454816014     -0.409090906       3587.58765       1.68686903    
 -0.207707494      0.454816014     -0.490909100       3587.58765       1.68686903    
 -0.327430397      0.377874792     -0.490909100       3587.58765       1.68686903    
 -0.420626789      0.270320386     -0.409090906       5015.00684       1.68686903    
 -0.327430397      0.377874792     -0.409090906       5015.00684       1.68686903    
 -0.327430397      0.377874792     -0.490909100       5015.00684       1.68686903    
 -0.420626789      0.270320386     -0.490909100       5015.00684       1.68686903    
 -0.479746491      0.140866295     -0.409090906       6036.14062       1.68686891    
 -0.420626789      0.270320386     -0.409090906       6036.14062       1.68686891    
 -0.420626789      0.270320386     -0.490909100       6036.14062       1.68686891    
 -0.479746491      0.140866295     -0.490909100       6036.14062       1.68686891    
 -0.500000000       2.84000009E-16 -0.409090906       6568.26416       1.68686891    
 -0.479746491      0.140866295     -0.409090906       6568.26416       1.68686891    
 -0.479746491      0.140866295     -0.490909100       6568.26416       1.68686891    
 -0.500000000       2.84000009E-16 -0.490909100       6568.26416       1.68686891    
  0.479746491      0.140866295     -0.490909100       6396.17822      -1.45410979    
  0.500000000       0.00000000     -0.490909100       6396.17822      -1.45410979    
  0.500000000       0.00000000     -0.572727323       6396.17822      -1.45410979    
  0.479746491      0.140866295     -0.572727323       6396.17822      -1.45410979    
  0.420626789      0.270320386     -0.490909100       5877.99268      -1.45410967    
  0.479746491      0.140866295     -0.490909100       5877.99268      -1.45410967    
  0.479746491      0.140866295     -0.572727323       5877.99268      -1.45410967    
  0.420626789      0.270320386     -0.572727323       5877.99268      -1.45410967    
  0.327430397      0.377874792     -0.490909100       4883.61475      -1.45410979    
  0.420626789      0.270320386     -0.490909100       4883.61475      -1.45410979    
  0.420626789      0.270320386     -0.572727323       4883.61475      -1.45410979    
  0.327430397      0.377874792     -0.572727323       4883.61475      -1.45410979    
  0.207707494      0.454816014     -0.490909100       3493.59326      -1.45410979    
  0.327430397      0.377874792     -0.490909100       3493.59326      -1.45410979    
  0.327430397      0.377874792     -0.572727323       3493.59326      -1.45410979    
  0.207707494      0.454816014     -0.572727323       3493.59326      -1.45410979    
   7.11574182E-02  0.494910687     -0.490909100       1820.54077      -1.45410979    
  0.207707494      0.454816014     -0.490909100       1820.54077      -1.45410979    
  0.207707494      0.454816014     -0.572727323       1820.54077      -1.45410979    
   7.11574182E-02  0.494910687     -0.572727323       1820.54077      -1.45410979    
  -7.11574182E-02  0.494910687     -0.490909100       6.20653911E-04   2.52191782    
   7.11574182E-02  0.494910687     -0.490909100       6.20653911E-04   2.52191782    
   7.11574182E-02  0.494910687     -0.572727323       6.20653911E-04   2.52191782    
  -7.11574182E-02  0.494910687     -0.572727323       6.20653911E-04   2.52191782    
 -0.207707494      0.454816014     -0.490909100       1820.54187       1.68748319    
  -7.11574182E-02  0.494910687     -0.490909100       1820.54187       1.68748319    
  -7.11574182E-02  0.494910687     -0.572727323       1820.54187       1.68748319    
 -0.207707494      0.454816014     -0.572727323       1820.54187       1.68748319    
 -0.327430397      0.377874792     -0.490909100       3493.59375       1.68748307    
 -0.207707494      0.454816014     -0.490909100       3493.59375       1.68748307    
 -0.207707494      0.454816014     -0.572727323       3493.59375       1.68748307    
 -0.327430397      0.377874792     -0.572727323       3493.59375       1.68748307    
 -0.420626789      0.270320386     -0.490909100       4883.61475       1.68748307    
 -0.327430397      0.377874792     -0.490909100       4883.61475       1.68748307    
 -0.327430397      0.377874792     -0.572727323       4883.61475       1.68748307    
 -0.420626789      0.270320386     -0.572727323       4883.61475       1.68748307    
 -0.479746491      0.140866295     -0.490909100       5877.99561       1.68748307    
 -0.420626789      0.270320386     -0.490909100       5877.99561       1.68748307    
 -0.420626789      0.270320386     -0.572727323       5877.99561       1.68748307    
 -0.479746491      0.140866295     -0.572727323       5877.99561       1.68748307    
 -0.500000000       2.84000009E-16 -0.490909100       6396.17871       1.68748295    
 -0.479746491      0.140866295     -0.490909100       6396.17871       1.68748295    
 -0.479746491      0.140866295     -0.572727323       6396.17871       1.68748295    
 -0.500000000       2.84000009E-16 -0.572727323       6396.17871       1.68748295    
  0.479746491      0.140866295     -0.572727323       6199.74658      -1.45307362    
  0.500000000       0.00000000     -0.572727323       6199.74658      -1.45307362    
  0.500000000       0.00000000     -0.654545426       6199.74658      -1.45307362    
  0.479746491      0.140866295     -0.654545426       6199.74658      -1.45307362    
  0.420626789      0.270320386     -0.572727323       5697.48145      -1.45307362    
  0.479746491      0.140866295     -0.572727323       5697.48145      -1.45307362    
  0.479746491      0.140866295     -0.654545426       5697.48145      -1.45307362    
  0.420626789      0.270320386     -0.654545426       5697.48145      -1.45307362    
  0.327430397      0.377874792     -0.572727323       4733.63574      -1.45307350    
  0.420626789      0.270320386     -0.572727323       4733.63574      -1.45307350    
  0.420626789      0.270320386     -0.654545426       4733.63574      -1.45307350    
  0.327430397      0.377874792     -0.654545426       4733.63574      -1.45307350    
  0.207707494      0.454816014     -0.572727323       3386.30225      -1.45307350    
  0.327430397      0.377874792     -0.572727323       3386.30225      -1.45307350    
  0.327430397      0.377874792     -0.654545426       3386.30225      -1.45307350    
  0.207707494      0.454816014     -0.654545426       3386.30225      -1.45307350    
   7.11574182E-02  0.494910687     -0.572727323       1764.63062      -1.45307374    
  0.207707494      0.454816014     -0.572727323       1764.63062      -1.45307374    
  0.207707494      0.454816014     -0.654545426       1764.63062      -1.45307374    
   7.11574182E-02  0.494910687     -0.654545426       1764.63062      -1.45307374    
  -7.11574182E-02  0.494910687     -0.572727323       6.69538276E-04   2.43613029    
   7.11574182E-02  0.494910687     -0.572727323       6.69538276E-04   2.43613029    
   7.11574182E-02  0.494910687     -0.654545426       6.69538276E-04   2.43613029    
  -7.11574182E-02  0.494910687     -0.654545426       6.69538276E-04   2.43613029    
 -0.207707494      0.454816014     -0.572727323       1764.63184       1.68851948    
  -7.11574182E-02  0.494910687     -0.572727323       1764.63184       1.68851948    
  -7.11574182E-02  0.494910687     -0.654545426       1764.63184       1.68851948    
 -0.207707494      0.454816014     -0.654545426       1764.63184       1.68851948    
 -0.327430397      0.377874792     -0.572727323       3386.30273       1.68851936    
 -0.207707494      0.454816014     -0.572727323       3386.30273       1.68851936    
 -0.207707494      0.454816014     -0.654545426       3386.30273       1.68851936    
 -0.327430397      0.377874792     -0.654545426       3386.30273       1.68851936    
 -0.420626789      0.270320386     -0.572727323       4733.63672       1.68851924    
 -0.327430397      0.377874792     -0.572727323       4733.63672       1.68851924    
 -0.327430397      0.377874792     -0.654545426       4733.63672       1.68851924    
 -0.420626789      0.270320386     -0.654545426       4733.63672       1.68851924    
 -0.479746491      0.140866295     -0.572727323       5697.48291       1.68851924    
 -0.420626789      0.270320386     -0.572727323       5697.48291       1.68851924    
 -0.420626789      0.270320386     -0.654545426       5697.48291       1.68851924    