 VARIABLES="X" "Y" "Z" "abs(p) (Pa)" "angle(p) (rad)"
ZONE N=    528,E =     462, F=FEPOINT, ET=QUADRILATERAL
  0.479746491      0.140866295       0.00000000       1.58486887E-06 -0.752008379    
  0.500000000       0.00000000       0.00000000       1.58486887E-06 -0.752008379    
  0.500000000       0.00000000      -8.18181783E-02   1.58486887E-06 -0.752008379    
  0.479746491      0.140866295      -8.18181783E-02   1.58486887E-06 -0.752008379    
  0.420626789      0.270320386       0.00000000       1.73021017E-05  -1.38687396    
  0.479746491      0.140866295       0.00000000       1.73021017E-05  -1.38687396    
  0.479746491      0.140866295      -8.18181783E-02   1.73021017E-05  -1.38687396    
  0.420626789      0.270320386      -8.18181783E-02   1.73021017E-05  -1.38687396    
  0.327430397      0.377874792       0.00000000       4.36164964E-06  -9.65182111E-02
  0.420626789      0.270320386       0.00000000       4.36164964E-06  -9.65182111E-02
  0.420626789      0.270320386      -8.18181783E-02   4.36164964E-06  -9.65182111E-02
  0.327430397      0.377874792      -8.18181783E-02   4.36164964E-06  -9.65182111E-02
  0.207707494      0.454816014       0.00000000       2.25875865E-05  -1.37390292    
  0.327430397      0.377874792       0.00000000       2.25875865E-05  -1.37390292    
  0.327430397      0.377874792      -8.18181783E-02   2.25875865E-05  -1.37390292    
  0.207707494      0.454816014      -8.18181783E-02   2.25875865E-05  -1.37390292    
   7.11574182E-02  0.494910687       0.00000000       4.05908440E-06  0.552396774    
  0.207707494      0.454816014       0.00000000       4.05908440E-06  0.552396774    
  0.207707494      0.454816014      -8.18181783E-02   4.05908440E-06  0.552396774    
   7.11574182E-02  0.494910687      -8.18181783E-02   4.05908440E-06  0.552396774    
  -7.11574182E-02  0.494910687       0.00000000       1.82006943E-06  -9.50724781E-02
   7.11574182E-02  0.494910687       0.00000000       1.82006943E-06  -9.50724781E-02
   7.11574182E-02  0.494910687      -8.18181783E-02   1.82006943E-06  -9.50724781E-02
  -7.11574182E-02  0.494910687      -8.18181783E-02   1.82006943E-06  -9.50724781E-02
 -0.207707494      0.454816014       0.00000000       2.69872271E-06  -1.56012952    
  -7.11574182E-02  0.494910687       0.00000000       2.69872271E-06  -1.56012952    
  -7.11574182E-02  0.494910687      -8.18181783E-02   2.69872271E-06  -1.56012952    
 -0.207707494      0.454816014      -8.18181783E-02   2.69872271E-06  -1.56012952    
 -0.327430397      0.377874792       0.00000000       2.10118269E-05   1.63493824    
 -0.207707494      0.454816014       0.00000000       2.10118269E-05   1.63493824    
 -0.207707494      0.454816014      -8.18181783E-02   2.10118269E-05   1.63493824    
 -0.327430397      0.377874792      -8.18181783E-02   2.10118269E-05   1.63493824    
 -0.420626789      0.270320386       0.00000000       2.47635080E-06  -2.46621871    
 -0.327430397      0.377874792       0.00000000       2.47635080E-06  -2.46621871    
 -0.327430397      0.377874792      -8.18181783E-02   2.47635080E-06  -2.46621871    
 -0.420626789      0.270320386      -8.18181783E-02   2.47635080E-06  -2.46621871    
 -0.479746491      0.140866295       0.00000000       1.49126372E-05   1.68006575    
 -0.420626789      0.270320386       0.00000000       1.49126372E-05   1.68006575    
 -0.420626789      0.270320386      -8.18181783E-02   1.49126372E-05   1.68006575    
 -0.479746491      0.140866295      -8.18181783E-02   1.49126372E-05   1.68006575    
 -0.500000000       2.84000009E-16   0.00000000       6.47291188E-07   2.89995360    
 -0.479746491      0.140866295       0.00000000       6.47291188E-07   2.89995360    
 -0.479746491      0.140866295      -8.18181783E-02   6.47291188E-07   2.89995360    
 -0.500000000       2.84000009E-16  -8.18181783E-02   6.47291188E-07   2.89995360    
  0.479746491      0.140866295      -8.18181783E-02   1.51249151E-06 -0.851421356    
  0.500000000       0.00000000      -8.18181783E-02   1.51249151E-06 -0.851421356    
  0.500000000       0.00000000     -0.163636401       1.51249151E-06 -0.851421356    
  0.479746491      0.140866295     -0.163636401       1.51249151E-06 -0.851421356    
  0.420626789      0.270320386      -8.18181783E-02   1.74212328E-05  -1.41376054    
  0.479746491      0.140866295      -8.18181783E-02   1.74212328E-05  -1.41376054    
  0.479746491      0.140866295     -0.163636401       1.74212328E-05  -1.41376054    
  0.420626789      0.270320386     -0.163636401       1.74212328E-05  -1.41376054    
  0.327430397      0.377874792      -8.18181783E-02   3.85299109E-06 -0.245223090    
  0.420626789      0.270320386      -8.18181783E-02   3.85299109E-06 -0.245223090    
  0.420626789      0.270320386     -0.163636401       3.85299109E-06 -0.245223090    
  0.327430397      0.377874792     -0.163636401       3.85299109E-06 -0.245223090    
  0.207707494      0.454816014      -8.18181783E-02   2.19449139E-05  -1.39658046    
  0.327430397      0.377874792      -8.18181783E-02   2.19449139E-05  -1.39658046    
  0.327430397      0.377874792     -0.163636401       2.19449139E-05  -1.39658046    
  0.207707494      0.454816014     -0.163636401       2.19449139E-05  -1.39658046    
   7.11574182E-02  0.494910687      -8.18181783E-02   3.53195855E-06  0.569866419    
  0.207707494      0.454816014      -8.18181783E-02   3.53195855E-06  0.569866419    
  0.207707494      0.454816014     -0.163636401       3.53195855E-06  0.569866419    
   7.11574182E-02  0.494910687     -0.163636401       3.53195855E-06  0.569866419    
  -7.11574182E-02  0.494910687      -8.18181783E-02   1.56601425E-06 -0.100662701    
   7.11574182E-02  0.494910687      -8.18181783E-02   1.56601425E-06 -0.100662701    
   7.11574182E-02  0.494910687     -0.163636401       1.56601425E-06 -0.100662701    
  -7.11574182E-02  0.494910687     -0.163636401       1.56601425E-06 -0.100662701    
 -0.207707494      0.454816014      -8.18181783E-02   2.42390183E-06  -1.56156182    
  -7.11574182E-02  0.494910687      -8.18181783E-02   2.42390183E-06  -1.56156182    
  -7.11574182E-02  0.494910687     -0.163636401       2.42390183E-06  -1.56156182    
 -0.207707494      0.454816014     -0.163636401       2.42390183E-06  -1.56156182    
 -0.327430397      0.377874792      -8.18181783E-02   2.05402612E-05   1.62740636    
 -0.207707494      0.454816014      -8.18181783E-02   2.05402612E-05   1.62740636    
 -0.207707494      0.454816014     -0.163636401       2.05402612E-05   1.62740636    
 -0.327430397      0.377874792     -0.163636401       2.05402612E-05   1.62740636    
 -0.420626789      0.270320386      -8.18181783E-02   2.00456839E-06  -2.55219793    
 -0.327430397      0.377874792      -8.18181783E-02   2.00456839E-06  -2.55219793    
 -0.327430397      0.377874792     -0.163636401       2.00456839E-06  -2.55219793    
 -0.420626789      0.270320386     -0.163636401       2.00456839E-06  -2.55219793    
 -0.479746491      0.140866295      -8.18181783E-02   1.44151081E-05   1.66819394    
 -0.420626789      0.270320386      -8.18181783E-02   1.44151081E-05   1.66819394    
 -0.420626789      0.270320386     -0.163636401       1.44151081E-05   1.66819394    
 -0.479746491      0.140866295     -0.163636401       1.44151081E-05   1.66819394    
 -0.500000000       2.84000009E-16  -8.18181783E-02   5.45524188E-07   3.02279043    
 -0.479746491      0.140866295      -8.18181783E-02   5.45524188E-07   3.02279043    
 -0.479746491      0.140866295     -0.163636401       5.45524188E-07   3.02279043    
 -0.500000000       2.84000009E-16 -0.163636401       5.45524188E-07   3.02279043    
  0.479746491      0.140866295     -0.163636401       2.59021385E-06  -1.23273826    
  0.500000000       0.00000000     -0.163636401       2.59021385E-06  -1.23273826    
  0.500000000       0.00000000     -0.245454505       2.59021385E-06  -1.23273826    
  0.479746491      0.140866295     -0.245454505       2.59021385E-06  -1.23273826    
  0.420626789      0.270320386     -0.163636401       2.05089946E-05  -1.45603561    
  0.479746491      0.140866295     -0.163636401       2.05089946E-05  -1.45603561    
  0.479746491      0.140866295     -0.245454505       2.05089946E-05  -1.45603561    
  0.420626789      0.270320386     -0.245454505       2.05089946E-05  -1.45603561    
  0.327430397      0.377874792     -0.163636401       6.78526112E-06  -1.07604289    
  0.420626789      0.270320386     -0.163636401       6.78526112E-06  -1.07604289    
  0.420626789      0.270320386     -0.245454505       6.78526112E-06  -1.07604289    
  0.327430397      0.377874792     -0.245454505       6.78526112E-06  -1.07604289    
  0.207707494      0.454816014     -0.163636401       2.24175365E-05  -1.42402005    
  0.327430397      0.377874792     -0.163636401       2.24175365E-05  -1.42402005    
  0.327430397      0.377874792     -0.245454505       2.24175365E-05  -1.42402005    
  0.207707494      0.454816014     -0.245454505       2.24175365E-05  -1.42402005    
   7.11574182E-02  0.494910687     -0.163636401       2.62057483E-06 -0.210255429    
  0.207707494      0.454816014     -0.163636401       2.62057483E-06 -0.210255429    
  0.207707494      0.454816014     -0.245454505       2.62057483E-06 -0.210255429    
   7.11574182E-02  0.494910687     -0.245454505       2.62057483E-06 -0.210255429    
  -7.11574182E-02  0.494910687     -0.163636401       1.35118103E-06 -0.114726335    
   7.11574182E-02  0.494910687     -0.163636401       1.35118103E-06 -0.114726335    
   7.11574182E-02  0.494910687     -0.245454505       1.35118103E-06 -0.114726335    
  -7.11574182E-02  0.494910687     -0.245454505       1.35118103E-06 -0.114726335    
 -0.207707494      0.454816014     -0.163636401       4.62603928E-08   1.16224158    
  -7.11574182E-02  0.494910687     -0.163636401       4.62603928E-08   1.16224158    
  -7.11574182E-02  0.494910687     -0.245454505       4.62603928E-08   1.16224158    
 -0.207707494      0.454816014     -0.245454505       4.62603928E-08   1.16224158    
 -0.327430397      0.377874792     -0.163636401       2.10918824E-05   1.61835504    
 -0.207707494      0.454816014     -0.163636401       2.10918824E-05   1.61835504    
 -0.207707494      0.454816014     -0.245454505       2.10918824E-05   1.61835504    
 -0.327430397      0.377874792     -0.245454505       2.10918824E-05   1.61835504    
 -0.420626789      0.270320386     -0.163636401       3.85179146E-06   1.95317507    
 -0.327430397      0.377874792     -0.163636401       3.85179146E-06   1.95317507    
 -0.327430397      0.377874792     -0.245454505       3.85179146E-06   1.95317507    
 -0.420626789      0.270320386     -0.245454505       3.85179146E-06   1.95317507    
 -0.479746491      0.140866295     -0.163636401       1.42741774E-05   1.65558863    
 -0.420626789      0.270320386     -0.163636401       1.42741774E-05   1.65558863    
 -0.420626789      0.270320386     -0.245454505       1.42741774E-05   1.65558863    
 -0.479746491      0.140866295     -0.245454505       1.42741774E-05   1.65558863    
 -0.500000000       2.84000009E-16 -0.163636401       1.12982013E-06   1.99703848    
 -0.479746491      0.140866295     -0.163636401       1.12982013E-06   1.99703848    
 -0.479746491      0.140866295     -0.245454505       1.12982013E-06   1.99703848    
 -0.500000000       2.84000009E-16 -0.245454505       1.12982013E-06   1.99703848    
  0.479746491      0.140866295     -0.245454505       1.81483381E-06  -1.14902210    
  0.500000000       0.00000000     -0.245454505       1.81483381E-06  -1.14902210    
  0.500000000       0.00000000     -0.327272713       1.81483381E-06  -1.14902210    
  0.479746491      0.140866295     -0.327272713       1.81483381E-06  -1.14902210    
  0.420626789      0.270320386     -0.245454505       1.94943477E-05  -1.46642041    
  0.479746491      0.140866295     -0.245454505       1.94943477E-05  -1.46642041    
  0.479746491      0.140866295     -0.327272713       1.94943477E-05  -1.46642041    
  0.420626789      0.270320386     -0.327272713       1.94943477E-05  -1.46642041    
  0.327430397      0.377874792     -0.245454505       1.46405646E-05  -1.37931943    
  0.420626789      0.270320386     -0.245454505       1.46405646E-05  -1.37931943    
  0.420626789      0.270320386     -0.327272713       1.46405646E-05  -1.37931943    
  0.327430397      0.377874792     -0.327272713       1.46405646E-05  -1.37931943    
  0.207707494      0.454816014     -0.245454505       2.30543483E-05  -1.44750416    
  0.327430397      0.377874792     -0.245454505       2.30543483E-05  -1.44750416    
  0.327430397      0.377874792     -0.327272713       2.30543483E-05  -1.44750416    
  0.207707494      0.454816014     -0.327272713       2.30543483E-05  -1.44750416    
   7.11574182E-02  0.494910687     -0.245454505       2.48659649E-06  0.470807999    
  0.207707494      0.454816014     -0.245454505       2.48659649E-06  0.470807999    
  0.207707494      0.454816014     -0.327272713       2.48659649E-06  0.470807999    
   7.11574182E-02  0.494910687     -0.327272713       2.48659649E-06  0.470807999    
  -7.11574182E-02  0.494910687     -0.245454505       1.17122397E-06 -0.136933789    
   7.11574182E-02  0.494910687     -0.245454505       1.17122397E-06 -0.136933789    
   7.11574182E-02  0.494910687     -0.327272713       1.17122397E-06 -0.136933789    
  -7.11574182E-02  0.494910687     -0.327272713       1.17122397E-06 -0.136933789    
 -0.207707494      0.454816014     -0.245454505       1.64025380E-06  -1.56157088    
  -7.11574182E-02  0.494910687     -0.245454505       1.64025380E-06  -1.56157088    
  -7.11574182E-02  0.494910687     -0.327272713       1.64025380E-06  -1.56157088    
 -0.207707494      0.454816014     -0.327272713       1.64025380E-06  -1.56157088    
 -0.327430397      0.377874792     -0.245454505       2.17521119E-05   1.61071122    
 -0.207707494      0.454816014     -0.245454505       2.17521119E-05   1.61071122    
 -0.207707494      0.454816014     -0.327272713       2.17521119E-05   1.61071122    
 -0.327430397      0.377874792     -0.327272713       2.17521119E-05   1.61071122    
 -0.420626789      0.270320386     -0.245454505       1.17540294E-05   1.67680323    
 -0.327430397      0.377874792     -0.245454505       1.17540294E-05   1.67680323    
 -0.327430397      0.377874792     -0.327272713       1.17540294E-05   1.67680323    
 -0.420626789      0.270320386     -0.327272713       1.17540294E-05   1.67680323    
 -0.479746491      0.140866295     -0.245454505       1.23604414E-05   1.65552151    
 -0.420626789      0.270320386     -0.245454505       1.23604414E-05   1.65552151    
 -0.420626789      0.270320386     -0.327272713       1.23604414E-05   1.65552151    
 -0.479746491      0.140866295     -0.327272713       1.23604414E-05   1.65552151    
 -0.500000000       2.84000009E-16 -0.245454505       4.04360549E-07  -3.11075330    
 -0.479746491      0.140866295     -0.245454505       4.04360549E-07  -3.11075330    
 -0.479746491      0.140866295     -0.327272713       4.04360549E-07  -3.11075330    
 -0.500000000       2.84000009E-16 -0.327272713       4.04360549E-07  -3.11075330    
  0.479746491      0.140866295     -0.327272713       3.01586033E-06  -1.35512292    
  0.500000000       0.00000000     -0.327272713       3.01586033E-06  -1.35512292    
  0.500000000       0.00000000     -0.409090906       3.01586033E-06  -1.35512292    
  0.479746491      0.140866295     -0.409090906       3.01586033E-06  -1.35512292    
  0.420626789      0.270320386     -0.327272713       2.19928806E-05  -1.49048698    
  0.479746491      0.140866295     -0.327272713       2.19928806E-05  -1.49048698    
  0.479746491      0.140866295     -0.409090906       2.19928806E-05  -1.49048698    
  0.420626789      0.270320386     -0.409090906       2.19928806E-05  -1.49048698    
  0.327430397      0.377874792     -0.327272713       8.53582242E-06  -1.28330672    
  0.420626789      0.270320386     -0.327272713       8.53582242E-06  -1.28330672    
  0.420626789      0.270320386     -0.409090906       8.53582242E-06  -1.28330672    
  0.327430397      0.377874792     -0.409090906       8.53582242E-06  -1.28330672    
  0.207707494      0.454816014     -0.327272713       2.32432285E-05  -1.46464229    
  0.327430397      0.377874792     -0.327272713       2.32432285E-05  -1.46464229    
  0.327430397      0.377874792     -0.409090906       2.32432285E-05  -1.46464229    
  0.207707494      0.454816014     -0.409090906       2.32432285E-05  -1.46464229    
   7.11574182E-02  0.494910687     -0.327272713       2.36064352E-06 -0.617498100    
  0.207707494      0.454816014     -0.327272713       2.36064352E-06 -0.617498100    
  0.207707494      0.454816014     -0.409090906       2.36064352E-06 -0.617498100    
   7.11574182E-02  0.494910687     -0.409090906       2.36064352E-06 -0.617498100    
  -7.11574182E-02  0.494910687     -0.327272713       1.02147203E-06 -0.166343927    
   7.11574182E-02  0.494910687     -0.327272713       1.02147203E-06 -0.166343927    
   7.11574182E-02  0.494910687     -0.409090906       1.02147203E-06 -0.166343927    
  -7.11574182E-02  0.494910687     -0.409090906       1.02147203E-06 -0.166343927    
 -0.207707494      0.454816014     -0.327272713       8.38547010E-07   1.55589998    
  -7.11574182E-02  0.494910687     -0.327272713       8.38547010E-07   1.55589998    
  -7.11574182E-02  0.494910687     -0.409090906       8.38547010E-07   1.55589998    
 -0.207707494      0.454816014     -0.409090906       8.38547010E-07   1.55589998    
 -0.327430397      0.377874792     -0.327272713       2.19481826E-05   1.60518897    
 -0.207707494      0.454816014     -0.327272713       2.19481826E-05   1.60518897    
 -0.207707494      0.454816014     -0.409090906       2.19481826E-05   1.60518897    
 -0.327430397      0.377874792     -0.409090906       2.19481826E-05   1.60518897    
 -0.420626789      0.270320386     -0.327272713       5.46990714E-06   1.76972699    
 -0.327430397      0.377874792     -0.327272713       5.46990714E-06   1.76972699    
 -0.327430397      0.377874792     -0.409090906       5.46990714E-06   1.76972699    
 -0.420626789      0.270320386     -0.409090906       5.46990714E-06   1.76972699    
 -0.479746491      0.140866295     -0.327272713       1.46009106E-05   1.63309646    
 -0.420626789      0.270320386     -0.327272713       1.46009106E-05   1.63309646    
 -0.420626789      0.270320386     -0.409090906       1.46009106E-05   1.63309646    
 -0.479746491      0.140866295     -0.409090906       1.46009106E-05   1.63309646    
 -0.500000000       2.84000009E-16 -0.327272713       1.21814958E-06   1.86328959    
 -0.479746491      0.140866295     -0.327272713       1.21814958E-06   1.86328959    
 -0.479746491      0.140866295     -0.409090906       1.21814958E-06   1.86328959    
 -0.500000000       2.84000009E-16 -0.409090906       1.21814958E-06   1.86328959    
  0.479746491      0.140866295     -0.409090906       2.88418050E-06  -1.37405074    
  0.500000000       0.00000000     -0.409090906       2.88418050E-06  -1.37405074    
  0.500000000       0.00000000     -0.490909100       2.88418050E-06  -1.37405074    
  0.479746491      0.140866295     -0.490909100       2.88418050E-06  -1.37405074    
  0.420626789      0.270320386     -0.409090906       2.20433194E-05  -1.50082135    
  0.479746491      0.140866295     -0.409090906       2.20433194E-05  -1.50082135    
  0.479746491      0.140866295     -0.490909100       2.20433194E-05  -1.50082135    
  0.420626789      0.270320386     -0.490909100       2.20433194E-05  -1.50082135    
  0.327430397      0.377874792     -0.409090906       9.11294137E-06  -1.33666742    
  0.420626789      0.270320386     -0.409090906       9.11294137E-06  -1.33666742    
  0.420626789      0.270320386     -0.490909100       9.11294137E-06  -1.33666742    
  0.327430397      0.377874792     -0.490909100       9.11294137E-06  -1.33666742    
  0.207707494      0.454816014     -0.409090906       2.36075703E-05  -1.47954905    
  0.327430397      0.377874792     -0.409090906       2.36075703E-05  -1.47954905    
  0.327430397      0.377874792     -0.490909100       2.36075703E-05  -1.47954905    
  0.207707494      0.454816014     -0.490909100       2.36075703E-05  -1.47954905    
   7.11574182E-02  0.494910687     -0.409090906       2.16455123E-06 -0.681532562    
  0.207707494      0.454816014     -0.409090906       2.16455123E-06 -0.681532562    
  0.207707494      0.454816014     -0.490909100       2.16455123E-06 -0.681532562    
   7.11574182E-02  0.494910687     -0.490909100       2.16455123E-06 -0.681532562    
  -7.11574182E-02  0.494910687     -0.409090906       8.97568782E-07 -0.200732172    
   7.11574182E-02  0.494910687     -0.409090906       8.97568782E-07 -0.200732172    
   7.11574182E-02  0.494910687     -0.490909100       8.97568782E-07 -0.200732172    
  -7.11574182E-02  0.494910687     -0.490909100       8.97568782E-07 -0.200732172    
 -0.207707494      0.454816014     -0.409090906       8.19685511E-07   1.55812824    
  -7.11574182E-02  0.494910687     -0.409090906       8.19685511E-07   1.55812824    
  -7.11574182E-02  0.494910687     -0.490909100       8.19685511E-07   1.55812824    
 -0.207707494      0.454816014     -0.490909100       8.19685511E-07   1.55812824    
 -0.327430397      0.377874792     -0.409090906       2.23315747E-05   1.60034704    
 -0.207707494      0.454816014     -0.409090906       2.23315747E-05   1.60034704    
 -0.207707494      0.454816014     -0.490909100       2.23315747E-05   1.60034704    
 -0.327430397      0.377874792     -0.490909100       2.23315747E-05   1.60034704    
 -0.420626789      0.270320386     -0.409090906       6.09561130E-06   1.72641230    
 -0.327430397      0.377874792     -0.409090906       6.09561130E-06   1.72641230    
 -0.327430397      0.377874792     -0.490909100       6.09561130E-06   1.72641230    
 -0.420626789      0.270320386     -0.490909100       6.09561130E-06   1.72641230    
 -0.479746491      0.140866295     -0.409090906       1.46320635E-05   1.62511623    
 -0.420626789      0.270320386     -0.409090906       1.46320635E-05   1.62511623    
 -0.420626789      0.270320386     -0.490909100       1.46320635E-05   1.62511623    
 -0.479746491      0.140866295     -0.490909100       1.46320635E-05   1.62511623    
 -0.500000000       2.84000009E-16 -0.409090906       1.07923597E-06   1.85918343    
 -0.479746491      0.140866295     -0.409090906       1.07923597E-06   1.85918343    
 -0.479746491      0.140866295     -0.490909100       1.07923597E-06   1.85918343    
 -0.500000000       2.84000009E-16 -0.490909100       1.07923597E-06   1.85918343    
  0.479746491      0.140866295     -0.490909100       1.18027174E-06  -1.13716245    
  0.500000000       0.00000000     -0.490909100       1.18027174E-06  -1.13716245    
  0.500000000       0.00000000     -0.572727323       1.18027174E-06  -1.13716245    
  0.479746491      0.140866295     -0.572727323       1.18027174E-06  -1.13716245    
  0.420626789      0.270320386     -0.490909100       1.93830456E-05  -1.50079930    
  0.479746491      0.140866295     -0.490909100       1.93830456E-05  -1.50079930    
  0.479746491      0.140866295     -0.572727323       1.93830456E-05  -1.50079930    
  0.420626789      0.270320386     -0.572727323       1.93830456E-05  -1.50079930    
  0.327430397      0.377874792     -0.490909100       1.76791455E-05  -1.46541548    
  0.420626789      0.270320386     -0.490909100       1.76791455E-05  -1.46541548    
  0.420626789      0.270320386     -0.572727323       1.76791455E-05  -1.46541548    
  0.327430397      0.377874792     -0.572727323       1.76791455E-05  -1.46541548    
  0.207707494      0.454816014     -0.490909100       2.43889499E-05  -1.49313903    
  0.327430397      0.377874792     -0.490909100       2.43889499E-05  -1.49313903    
  0.327430397      0.377874792     -0.572727323       2.43889499E-05  -1.49313903    
  0.207707494      0.454816014     -0.572727323       2.43889499E-05  -1.49313903    
   7.11574182E-02  0.494910687     -0.490909100       2.03250897E-06  0.756216407    
  0.207707494      0.454816014     -0.490909100       2.03250897E-06  0.756216407    
  0.207707494      0.454816014     -0.572727323       2.03250897E-06  0.756216407    
   7.11574182E-02  0.494910687     -0.572727323       2.03250897E-06  0.756216407    
  -7.11574182E-02  0.494910687     -0.490909100       7.95981464E-07 -0.238053992    
   7.11574182E-02  0.494910687     -0.490909100       7.95981464E-07 -0.238053992    
   7.11574182E-02  0.494910687     -0.572727323       7.95981464E-07 -0.238053992    
  -7.11574182E-02  0.494910687     -0.572727323       7.95981464E-07 -0.238053992    
 -0.207707494      0.454816014     -0.490909100       1.94927725E-06  -1.56617284    
  -7.11574182E-02  0.494910687     -0.490909100       1.94927725E-06  -1.56617284    
  -7.11574182E-02  0.494910687     -0.572727323       1.94927725E-06  -1.56617284    
 -0.207707494      0.454816014     -0.572727323       1.94927725E-06  -1.56617284    
 -0.327430397      0.377874792     -0.490909100       2.31524591E-05   1.59587121    
 -0.207707494      0.454816014     -0.490909100       2.31524591E-05   1.59587121    
 -0.207707494      0.454816014     -0.572727323       2.31524591E-05   1.59587121    
 -0.327430397      0.377874792     -0.572727323       2.31524591E-05   1.59587121    
 -0.420626789      0.270320386     -0.490909100       1.48572917E-05   1.62676358    
 -0.327430397      0.377874792     -0.490909100       1.48572917E-05   1.62676358    
 -0.327430397      0.377874792     -0.572727323       1.48572917E-05   1.62676358    
 -0.420626789      0.270320386     -0.572727323       1.48572917E-05   1.62676358    
 -0.479746491      0.140866295     -0.490909100       1.21715275E-05   1.62824261    
 -0.420626789      0.270320386     -0.490909100       1.21715275E-05   1.62824261    
 -0.420626789      0.270320386     -0.572727323       1.21715275E-05   1.62824261    
 -0.479746491      0.140866295     -0.572727323       1.21715275E-05   1.62824261    
 -0.500000000       2.84000009E-16 -0.490909100       7.03406215E-07  -1.96476030    
 -0.479746491      0.140866295     -0.490909100       7.03406215E-07  -1.96476030    
 -0.479746491      0.140866295     -0.572727323       7.03406215E-07  -1.96476030    
 -0.500000000       2.84000009E-16 -0.572727323       7.03406215E-07  -1.96476030    
  0.479746491      0.140866295     -0.572727323       5.01804436E-07 -0.503446400    
  0.500000000       0.00000000     -0.572727323       5.01804436E-07 -0.503446400    
  0.500000000       0.00000000     -0.654545426       5.01804436E-07 -0.503446400    
  0.479746491      0.140866295     -0.654545426       5.01804436E-07 -0.503446400    
  0.420626789      0.270320386     -0.572727323       1.83947905E-05  -1.50542879    
  0.479746491      0.140866295     -0.572727323       1.83947905E-05  -1.50542879    
  0.479746491      0.140866295     -0.654545426       1.83947905E-05  -1.50542879    
  0.420626789      0.270320386     -0.654545426       1.83947905E-05  -1.50542879    
  0.327430397      0.377874792     -0.572727323       1.80162879E-05  -1.47917950    
  0.420626789      0.270320386     -0.572727323       1.80162879E-05  -1.47917950    
  0.420626789      0.270320386     -0.654545426       1.80162879E-05  -1.47917950    
  0.327430397      0.377874792     -0.654545426       1.80162879E-05  -1.47917950    
  0.207707494      0.454816014     -0.572727323       2.55945724E-05  -1.50522065    
  0.327430397      0.377874792     -0.572727323       2.55945724E-05  -1.50522065    
  0.327430397      0.377874792     -0.654545426       2.55945724E-05  -1.50522065    
  0.207707494      0.454816014     -0.654545426       2.55945724E-05  -1.50522065    
   7.11574182E-02  0.494910687     -0.572727323       1.86080297E-06  0.789205492    
  0.207707494      0.454816014     -0.572727323       1.86080297E-06  0.789205492    
  0.207707494      0.454816014     -0.654545426       1.86080297E-06  0.789205492    
   7.11574182E-02  0.494910687     -0.654545426       1.86080297E-06  0.789205492    
  -7.11574182E-02  0.494910687     -0.572727323       7.13274176E-07 -0.277104288    
   7.11574182E-02  0.494910687     -0.572727323       7.13274176E-07 -0.277104288    
   7.11574182E-02  0.494910687     -0.654545426       7.13274176E-07 -0.277104288    
  -7.11574182E-02  0.494910687     -0.654545426       7.13274176E-07 -0.277104288    
 -0.207707494      0.454816014     -0.572727323       1.87826663E-06  -1.56623673    
  -7.11574182E-02  0.494910687     -0.572727323       1.87826663E-06  -1.56623673    
  -7.11574182E-02  0.494910687     -0.654545426       1.87826663E-06  -1.56623673    
 -0.207707494      0.454816014     -0.654545426       1.87826663E-06  -1.56623673    
 -0.327430397      0.377874792     -0.572727323       2.44171188E-05   1.59184372    
 -0.207707494      0.454816014     -0.572727323       2.44171188E-05   1.59184372    
 -0.207707494      0.454816014     -0.654545426       2.44171188E-05   1.59184372    
 -0.327430397      0.377874792     -0.654545426       2.44171188E-05   1.59184372    
 -0.420626789      0.270320386     -0.572727323       1.54389800E-05   1.61848950    
 -0.327430397      0.377874792     -0.572727323       1.54389800E-05   1.61848950    
 -0.327430397      0.377874792     -0.654545426       1.54389800E-05   1.61848950    
 -0.420626789      0.270320386     -0.654545426       1.54389800E-05   1.61848950    
 -0.479746491      0.140866295     -0.572727323       1.19208453E-05   1.62274516    
 -0.420626789      0.270320386     -0.572727323       1.19208453E-05   1.62274516    
 -0.420626789      0.270320386     -0.654545426       1.19208453E-05   1.62274516    