 VARIABLES="X" "Y" "Z" "abs(p) (Pa)" "angle(p) (rad)"
ZONE N=    528,E =     462, F=FEPOINT, ET=QUADRILATERAL
  0.479746491      0.140866295       0.00000000       2109.22095      -2.91541314    
  0.500000000       0.00000000       0.00000000       2109.22095      -2.91541314    
  0.500000000       0.00000000      -8.18181783E-02   2109.22095      -2.91541314    
  0.479746491      0.140866295      -8.18181783E-02   2109.22095      -2.91541314    
  0.420626789      0.270320386       0.00000000       6156.78955      -2.91541386    
  0.479746491      0.140866295       0.00000000       6156.78955      -2.91541386    
  0.479746491      0.140866295      -8.18181783E-02   6156.78955      -2.91541386    
  0.420626789      0.270320386      -8.18181783E-02   6156.78955      -2.91541386    
  0.327430397      0.377874792       0.00000000       9705.57227      -2.91541243    
  0.420626789      0.270320386       0.00000000       9705.57227      -2.91541243    
  0.420626789      0.270320386      -8.18181783E-02   9705.57227      -2.91541243    
  0.327430397      0.377874792      -8.18181783E-02   9705.57227      -2.91541243    
  0.207707494      0.454816014       0.00000000       12468.0771      -2.91541123    
  0.327430397      0.377874792       0.00000000       12468.0771      -2.91541123    
  0.327430397      0.377874792      -8.18181783E-02   12468.0771      -2.91541123    
  0.207707494      0.454816014      -8.18181783E-02   12468.0771      -2.91541123    
   7.11574182E-02  0.494910687       0.00000000       14220.4932      -2.91541076    
  0.207707494      0.454816014       0.00000000       14220.4932      -2.91541076    
  0.207707494      0.454816014      -8.18181783E-02   14220.4932      -2.91541076    
   7.11574182E-02  0.494910687      -8.18181783E-02   14220.4932      -2.91541076    
  -7.11574182E-02  0.494910687       0.00000000       14820.8506      -2.91541076    
   7.11574182E-02  0.494910687       0.00000000       14820.8506      -2.91541076    
   7.11574182E-02  0.494910687      -8.18181783E-02   14820.8506      -2.91541076    
  -7.11574182E-02  0.494910687      -8.18181783E-02   14820.8506      -2.91541076    
 -0.207707494      0.454816014       0.00000000       14220.4932      -2.91541100    
  -7.11574182E-02  0.494910687       0.00000000       14220.4932      -2.91541100    
  -7.11574182E-02  0.494910687      -8.18181783E-02   14220.4932      -2.91541100    
 -0.207707494      0.454816014      -8.18181783E-02   14220.4932      -2.91541100    
 -0.327430397      0.377874792       0.00000000       12468.0801      -2.91541171    
 -0.207707494      0.454816014       0.00000000       12468.0801      -2.91541171    
 -0.207707494      0.454816014      -8.18181783E-02   12468.0801      -2.91541171    
 -0.327430397      0.377874792      -8.18181783E-02   12468.0801      -2.91541171    
 -0.420626789      0.270320386       0.00000000       9705.57129      -2.91541314    
 -0.327430397      0.377874792       0.00000000       9705.57129      -2.91541314    
 -0.327430397      0.377874792      -8.18181783E-02   9705.57129      -2.91541314    
 -0.420626789      0.270320386      -8.18181783E-02   9705.57129      -2.91541314    
 -0.479746491      0.140866295       0.00000000       6156.79053      -2.91541505    
 -0.420626789      0.270320386       0.00000000       6156.79053      -2.91541505    
 -0.420626789      0.270320386      -8.18181783E-02   6156.79053      -2.91541505    
 -0.479746491      0.140866295      -8.18181783E-02   6156.79053      -2.91541505    
 -0.500000000       2.84000009E-16   0.00000000       2109.22290      -2.91541457    
 -0.479746491      0.140866295       0.00000000       2109.22290      -2.91541457    
 -0.479746491      0.140866295      -8.18181783E-02   2109.22290      -2.91541457    
 -0.500000000       2.84000009E-16  -8.18181783E-02   2109.22290      -2.91541457    
  0.479746491      0.140866295      -8.18181783E-02   1114.60986       2.93755269    
  0.500000000       0.00000000      -8.18181783E-02   1114.60986       2.93755269    
  0.500000000       0.00000000     -0.163636401       1114.60986       2.93755269    
  0.479746491      0.140866295     -0.163636401       1114.60986       2.93755269    
  0.420626789      0.270320386      -8.18181783E-02   3253.52515       2.93755150    
  0.479746491      0.140866295      -8.18181783E-02   3253.52515       2.93755150    
  0.479746491      0.140866295     -0.163636401       3253.52515       2.93755150    
  0.420626789      0.270320386     -0.163636401       3253.52515       2.93755150    
  0.327430397      0.377874792      -8.18181783E-02   5128.86377       2.93755269    
  0.420626789      0.270320386      -8.18181783E-02   5128.86377       2.93755269    
  0.420626789      0.270320386     -0.163636401       5128.86377       2.93755269    
  0.327430397      0.377874792     -0.163636401       5128.86377       2.93755269    
  0.207707494      0.454816014      -8.18181783E-02   6588.68750       2.93755507    
  0.327430397      0.377874792      -8.18181783E-02   6588.68750       2.93755507    
  0.327430397      0.377874792     -0.163636401       6588.68750       2.93755507    
  0.207707494      0.454816014     -0.163636401       6588.68750       2.93755507    
   7.11574182E-02  0.494910687      -8.18181783E-02   7514.74756       2.93755722    
  0.207707494      0.454816014      -8.18181783E-02   7514.74756       2.93755722    
  0.207707494      0.454816014     -0.163636401       7514.74756       2.93755722    
   7.11574182E-02  0.494910687     -0.163636401       7514.74756       2.93755722    
  -7.11574182E-02  0.494910687      -8.18181783E-02   7831.99902       2.93755579    
   7.11574182E-02  0.494910687      -8.18181783E-02   7831.99902       2.93755579    
   7.11574182E-02  0.494910687     -0.163636401       7831.99902       2.93755579    
  -7.11574182E-02  0.494910687     -0.163636401       7831.99902       2.93755579    
 -0.207707494      0.454816014      -8.18181783E-02   7514.75098       2.93755698    
  -7.11574182E-02  0.494910687      -8.18181783E-02   7514.75098       2.93755698    
  -7.11574182E-02  0.494910687     -0.163636401       7514.75098       2.93755698    
 -0.207707494      0.454816014     -0.163636401       7514.75098       2.93755698    
 -0.327430397      0.377874792      -8.18181783E-02   6588.69434       2.93755484    
 -0.207707494      0.454816014      -8.18181783E-02   6588.69434       2.93755484    
 -0.207707494      0.454816014     -0.163636401       6588.69434       2.93755484    
 -0.327430397      0.377874792     -0.163636401       6588.69434       2.93755484    
 -0.420626789      0.270320386      -8.18181783E-02   5128.86670       2.93755269    
 -0.327430397      0.377874792      -8.18181783E-02   5128.86670       2.93755269    
 -0.327430397      0.377874792     -0.163636401       5128.86670       2.93755269    
 -0.420626789      0.270320386     -0.163636401       5128.86670       2.93755269    
 -0.479746491      0.140866295      -8.18181783E-02   3253.53027       2.93755198    
 -0.420626789      0.270320386      -8.18181783E-02   3253.53027       2.93755198    
 -0.420626789      0.270320386     -0.163636401       3253.53027       2.93755198    
 -0.479746491      0.140866295     -0.163636401       3253.53027       2.93755198    
 -0.500000000       2.84000009E-16  -8.18181783E-02   1114.61011       2.93755126    
 -0.479746491      0.140866295      -8.18181783E-02   1114.61011       2.93755126    
 -0.479746491      0.140866295     -0.163636401       1114.61011       2.93755126    
 -0.500000000       2.84000009E-16 -0.163636401       1114.61011       2.93755126    
  0.479746491      0.140866295     -0.163636401       1050.18665       2.16555524    
  0.500000000       0.00000000     -0.163636401       1050.18665       2.16555524    
  0.500000000       0.00000000     -0.245454505       1050.18665       2.16555524    
  0.479746491      0.140866295     -0.245454505       1050.18665       2.16555524    
  0.420626789      0.270320386     -0.163636401       3065.47461       2.16555667    
  0.479746491      0.140866295     -0.163636401       3065.47461       2.16555667    
  0.479746491      0.140866295     -0.245454505       3065.47461       2.16555667    
  0.420626789      0.270320386     -0.245454505       3065.47461       2.16555667    
  0.327430397      0.377874792     -0.163636401       4832.41357       2.16555715    
  0.420626789      0.270320386     -0.163636401       4832.41357       2.16555715    
  0.420626789      0.270320386     -0.245454505       4832.41357       2.16555715    
  0.327430397      0.377874792     -0.245454505       4832.41357       2.16555715    
  0.207707494      0.454816014     -0.163636401       6207.86670       2.16555667    
  0.327430397      0.377874792     -0.163636401       6207.86670       2.16555667    
  0.327430397      0.377874792     -0.245454505       6207.86670       2.16555667    
  0.207707494      0.454816014     -0.245454505       6207.86670       2.16555667    
   7.11574182E-02  0.494910687     -0.163636401       7080.38672       2.16555715    
  0.207707494      0.454816014     -0.163636401       7080.38672       2.16555715    
  0.207707494      0.454816014     -0.245454505       7080.38672       2.16555715    
   7.11574182E-02  0.494910687     -0.245454505       7080.38672       2.16555715    
  -7.11574182E-02  0.494910687     -0.163636401       7379.29639       2.16555929    
   7.11574182E-02  0.494910687     -0.163636401       7379.29639       2.16555929    
   7.11574182E-02  0.494910687     -0.245454505       7379.29639       2.16555929    
  -7.11574182E-02  0.494910687     -0.245454505       7379.29639       2.16555929    
 -0.207707494      0.454816014     -0.163636401       7080.38916       2.16555667    
  -7.11574182E-02  0.494910687     -0.163636401       7080.38916       2.16555667    
  -7.11574182E-02  0.494910687     -0.245454505       7080.38916       2.16555667    
 -0.207707494      0.454816014     -0.245454505       7080.38916       2.16555667    
 -0.327430397      0.377874792     -0.163636401       6207.86865       2.16555715    
 -0.207707494      0.454816014     -0.163636401       6207.86865       2.16555715    
 -0.207707494      0.454816014     -0.245454505       6207.86865       2.16555715    
 -0.327430397      0.377874792     -0.245454505       6207.86865       2.16555715    
 -0.420626789      0.270320386     -0.163636401       4832.41650       2.16555715    
 -0.327430397      0.377874792     -0.163636401       4832.41650       2.16555715    
 -0.327430397      0.377874792     -0.245454505       4832.41650       2.16555715    
 -0.420626789      0.270320386     -0.245454505       4832.41650       2.16555715    
 -0.479746491      0.140866295     -0.163636401       3065.47827       2.16555667    
 -0.420626789      0.270320386     -0.163636401       3065.47827       2.16555667    
 -0.420626789      0.270320386     -0.245454505       3065.47827       2.16555667    
 -0.479746491      0.140866295     -0.245454505       3065.47827       2.16555667    
 -0.500000000       2.84000009E-16 -0.163636401       1050.18640       2.16555524    
 -0.479746491      0.140866295     -0.163636401       1050.18640       2.16555524    
 -0.479746491      0.140866295     -0.245454505       1050.18640       2.16555524    
 -0.500000000       2.84000009E-16 -0.245454505       1050.18640       2.16555524    
  0.479746491      0.140866295     -0.245454505       1418.45105       1.79514074    
  0.500000000       0.00000000     -0.245454505       1418.45105       1.79514074    
  0.500000000       0.00000000     -0.327272713       1418.45105       1.79514074    
  0.479746491      0.140866295     -0.327272713       1418.45105       1.79514074    
  0.420626789      0.270320386     -0.245454505       4140.43945       1.79514146    
  0.479746491      0.140866295     -0.245454505       4140.43945       1.79514146    
  0.479746491      0.140866295     -0.327272713       4140.43945       1.79514146    
  0.420626789      0.270320386     -0.327272713       4140.43945       1.79514146    
  0.327430397      0.377874792     -0.245454505       6526.98584       1.79514134    
  0.420626789      0.270320386     -0.245454505       6526.98584       1.79514134    
  0.420626789      0.270320386     -0.327272713       6526.98584       1.79514134    
  0.327430397      0.377874792     -0.327272713       6526.98584       1.79514134    
  0.207707494      0.454816014     -0.245454505       8384.74805       1.79514170    
  0.327430397      0.377874792     -0.245454505       8384.74805       1.79514170    
  0.327430397      0.377874792     -0.327272713       8384.74805       1.79514170    
  0.207707494      0.454816014     -0.327272713       8384.74805       1.79514170    
   7.11574182E-02  0.494910687     -0.245454505       9563.23242       1.79514182    
  0.207707494      0.454816014     -0.245454505       9563.23242       1.79514182    
  0.207707494      0.454816014     -0.327272713       9563.23242       1.79514182    
   7.11574182E-02  0.494910687     -0.327272713       9563.23242       1.79514182    
  -7.11574182E-02  0.494910687     -0.245454505       9966.95801       1.79514253    
   7.11574182E-02  0.494910687     -0.245454505       9966.95801       1.79514253    
   7.11574182E-02  0.494910687     -0.327272713       9966.95801       1.79514253    
  -7.11574182E-02  0.494910687     -0.327272713       9966.95801       1.79514253    
 -0.207707494      0.454816014     -0.245454505       9563.23730       1.79514182    
  -7.11574182E-02  0.494910687     -0.245454505       9563.23730       1.79514182    
  -7.11574182E-02  0.494910687     -0.327272713       9563.23730       1.79514182    
 -0.207707494      0.454816014     -0.327272713       9563.23730       1.79514182    
 -0.327430397      0.377874792     -0.245454505       8384.74902       1.79514194    
 -0.207707494      0.454816014     -0.245454505       8384.74902       1.79514194    
 -0.207707494      0.454816014     -0.327272713       8384.74902       1.79514194    
 -0.327430397      0.377874792     -0.327272713       8384.74902       1.79514194    
 -0.420626789      0.270320386     -0.245454505       6526.98486       1.79514170    
 -0.327430397      0.377874792     -0.245454505       6526.98486       1.79514170    
 -0.327430397      0.377874792     -0.327272713       6526.98486       1.79514170    
 -0.420626789      0.270320386     -0.327272713       6526.98486       1.79514170    
 -0.479746491      0.140866295     -0.245454505       4140.44092       1.79514158    
 -0.420626789      0.270320386     -0.245454505       4140.44092       1.79514158    
 -0.420626789      0.270320386     -0.327272713       4140.44092       1.79514158    
 -0.479746491      0.140866295     -0.327272713       4140.44092       1.79514158    
 -0.500000000       2.84000009E-16 -0.245454505       1418.45190       1.79514050    
 -0.479746491      0.140866295     -0.245454505       1418.45190       1.79514050    
 -0.479746491      0.140866295     -0.327272713       1418.45190       1.79514050    
 -0.500000000       2.84000009E-16 -0.327272713       1418.45190       1.79514050    
  0.479746491      0.140866295     -0.327272713       1774.68274       1.66507065    
  0.500000000       0.00000000     -0.327272713       1774.68274       1.66507065    
  0.500000000       0.00000000     -0.409090906       1774.68274       1.66507065    
  0.479746491      0.140866295     -0.409090906       1774.68274       1.66507065    
  0.420626789      0.270320386     -0.327272713       5180.27002       1.66507065    
  0.479746491      0.140866295     -0.327272713       5180.27002       1.66507065    
  0.479746491      0.140866295     -0.409090906       5180.27002       1.66507065    
  0.420626789      0.270320386     -0.409090906       5180.27002       1.66507065    
  0.327430397      0.377874792     -0.327272713       8166.19141       1.66507053    
  0.420626789      0.270320386     -0.327272713       8166.19141       1.66507053    
  0.420626789      0.270320386     -0.409090906       8166.19141       1.66507053    
  0.327430397      0.377874792     -0.409090906       8166.19141       1.66507053    
  0.207707494      0.454816014     -0.327272713       10490.5273       1.66507077    
  0.327430397      0.377874792     -0.327272713       10490.5273       1.66507077    
  0.327430397      0.377874792     -0.409090906       10490.5273       1.66507077    
  0.207707494      0.454816014     -0.409090906       10490.5273       1.66507077    
   7.11574182E-02  0.494910687     -0.327272713       11964.9814       1.66507077    
  0.207707494      0.454816014     -0.327272713       11964.9814       1.66507077    
  0.207707494      0.454816014     -0.409090906       11964.9814       1.66507077    
   7.11574182E-02  0.494910687     -0.409090906       11964.9814       1.66507077    
  -7.11574182E-02  0.494910687     -0.327272713       12470.1064       1.66507077    
   7.11574182E-02  0.494910687     -0.327272713       12470.1064       1.66507077    
   7.11574182E-02  0.494910687     -0.409090906       12470.1064       1.66507077    
  -7.11574182E-02  0.494910687     -0.409090906       12470.1064       1.66507077    
 -0.207707494      0.454816014     -0.327272713       11964.9795       1.66507077    
  -7.11574182E-02  0.494910687     -0.327272713       11964.9795       1.66507077    
  -7.11574182E-02  0.494910687     -0.409090906       11964.9795       1.66507077    
 -0.207707494      0.454816014     -0.409090906       11964.9795       1.66507077    
 -0.327430397      0.377874792     -0.327272713       10490.5244       1.66507089    
 -0.207707494      0.454816014     -0.327272713       10490.5244       1.66507089    
 -0.207707494      0.454816014     -0.409090906       10490.5244       1.66507089    
 -0.327430397      0.377874792     -0.409090906       10490.5244       1.66507089    
 -0.420626789      0.270320386     -0.327272713       8166.19092       1.66507065    
 -0.327430397      0.377874792     -0.327272713       8166.19092       1.66507065    
 -0.327430397      0.377874792     -0.409090906       8166.19092       1.66507065    
 -0.420626789      0.270320386     -0.409090906       8166.19092       1.66507065    
 -0.479746491      0.140866295     -0.327272713       5180.27344       1.66507101    
 -0.420626789      0.270320386     -0.327272713       5180.27344       1.66507101    
 -0.420626789      0.270320386     -0.409090906       5180.27344       1.66507101    
 -0.479746491      0.140866295     -0.409090906       5180.27344       1.66507101    
 -0.500000000       2.84000009E-16 -0.327272713       1774.68323       1.66507065    
 -0.479746491      0.140866295     -0.327272713       1774.68323       1.66507065    
 -0.479746491      0.140866295     -0.409090906       1774.68323       1.66507065    
 -0.500000000       2.84000009E-16 -0.409090906       1774.68323       1.66507065    
  0.479746491      0.140866295     -0.409090906       2041.58606       1.61317015    
  0.500000000       0.00000000     -0.409090906       2041.58606       1.61317015    
  0.500000000       0.00000000     -0.490909100       2041.58606       1.61317015    
  0.479746491      0.140866295     -0.490909100       2041.58606       1.61317015    
  0.420626789      0.270320386     -0.409090906       5959.35645       1.61316967    
  0.479746491      0.140866295     -0.409090906       5959.35645       1.61316967    
  0.479746491      0.140866295     -0.490909100       5959.35645       1.61316967    
  0.420626789      0.270320386     -0.490909100       5959.35645       1.61316967    
  0.327430397      0.377874792     -0.409090906       9394.33105       1.61317003    
  0.420626789      0.270320386     -0.409090906       9394.33105       1.61317003    
  0.420626789      0.270320386     -0.490909100       9394.33105       1.61317003    
  0.327430397      0.377874792     -0.490909100       9394.33105       1.61317003    
  0.207707494      0.454816014     -0.409090906       12068.2402       1.61316991    
  0.327430397      0.377874792     -0.409090906       12068.2402       1.61316991    
  0.327430397      0.377874792     -0.490909100       12068.2402       1.61316991    
  0.207707494      0.454816014     -0.490909100       12068.2402       1.61316991    
   7.11574182E-02  0.494910687     -0.409090906       13764.4336       1.61317003    
  0.207707494      0.454816014     -0.409090906       13764.4336       1.61317003    
  0.207707494      0.454816014     -0.490909100       13764.4336       1.61317003    
   7.11574182E-02  0.494910687     -0.490909100       13764.4336       1.61317003    
  -7.11574182E-02  0.494910687     -0.409090906       14345.5361       1.61317003    
   7.11574182E-02  0.494910687     -0.409090906       14345.5361       1.61317003    
   7.11574182E-02  0.494910687     -0.490909100       14345.5361       1.61317003    
  -7.11574182E-02  0.494910687     -0.490909100       14345.5361       1.61317003    
 -0.207707494      0.454816014     -0.409090906       13764.4355       1.61317015    
  -7.11574182E-02  0.494910687     -0.409090906       13764.4355       1.61317015    
  -7.11574182E-02  0.494910687     -0.490909100       13764.4355       1.61317015    
 -0.207707494      0.454816014     -0.490909100       13764.4355       1.61317015    
 -0.327430397      0.377874792     -0.409090906       12068.2393       1.61317003    
 -0.207707494      0.454816014     -0.409090906       12068.2393       1.61317003    
 -0.207707494      0.454816014     -0.490909100       12068.2393       1.61317003    
 -0.327430397      0.377874792     -0.490909100       12068.2393       1.61317003    
 -0.420626789      0.270320386     -0.409090906       9394.33398       1.61317003    
 -0.327430397      0.377874792     -0.409090906       9394.33398       1.61317003    
 -0.327430397      0.377874792     -0.490909100       9394.33398       1.61317003    
 -0.420626789      0.270320386     -0.490909100       9394.33398       1.61317003    
 -0.479746491      0.140866295     -0.409090906       5959.35742       1.61317003    
 -0.420626789      0.270320386     -0.409090906       5959.35742       1.61317003    
 -0.420626789      0.270320386     -0.490909100       5959.35742       1.61317003    
 -0.479746491      0.140866295     -0.490909100       5959.35742       1.61317003    
 -0.500000000       2.84000009E-16 -0.409090906       2041.58533       1.61317015    
 -0.479746491      0.140866295     -0.409090906       2041.58533       1.61317015    
 -0.479746491      0.140866295     -0.490909100       2041.58533       1.61317015    
 -0.500000000       2.84000009E-16 -0.490909100       2041.58533       1.61317015    
  0.479746491      0.140866295     -0.490909100       2219.49048       1.59002101    
  0.500000000       0.00000000     -0.490909100       2219.49048       1.59002101    
  0.500000000       0.00000000     -0.572727323       2219.49048       1.59002101    
  0.479746491      0.140866295     -0.572727323       2219.49048       1.59002101    
  0.420626789      0.270320386     -0.490909100       6478.66895       1.59002090    
  0.479746491      0.140866295     -0.490909100       6478.66895       1.59002090    
  0.479746491      0.140866295     -0.572727323       6478.66895       1.59002090    
  0.420626789      0.270320386     -0.572727323       6478.66895       1.59002090    
  0.327430397      0.377874792     -0.490909100       10212.9912       1.59002101    
  0.420626789      0.270320386     -0.490909100       10212.9912       1.59002101    
  0.420626789      0.270320386     -0.572727323       10212.9912       1.59002101    
  0.327430397      0.377874792     -0.572727323       10212.9912       1.59002101    
  0.207707494      0.454816014     -0.490909100       13119.8945       1.59002113    
  0.327430397      0.377874792     -0.490909100       13119.8945       1.59002113    
  0.327430397      0.377874792     -0.572727323       13119.8945       1.59002113    
  0.207707494      0.454816014     -0.572727323       13119.8945       1.59002113    
   7.11574182E-02  0.494910687     -0.490909100       14963.9004       1.59002137    
  0.207707494      0.454816014     -0.490909100       14963.9004       1.59002137    
  0.207707494      0.454816014     -0.572727323       14963.9004       1.59002137    
   7.11574182E-02  0.494910687     -0.572727323       14963.9004       1.59002137    
  -7.11574182E-02  0.494910687     -0.490909100       15595.6494       1.59002113    
   7.11574182E-02  0.494910687     -0.490909100       15595.6494       1.59002113    
   7.11574182E-02  0.494910687     -0.572727323       15595.6494       1.59002113    
  -7.11574182E-02  0.494910687     -0.572727323       15595.6494       1.59002113    
 -0.207707494      0.454816014     -0.490909100       14963.9062       1.59002125    
  -7.11574182E-02  0.494910687     -0.490909100       14963.9062       1.59002125    
  -7.11574182E-02  0.494910687     -0.572727323       14963.9062       1.59002125    
 -0.207707494      0.454816014     -0.572727323       14963.9062       1.59002125    
 -0.327430397      0.377874792     -0.490909100       13119.8955       1.59002113    
 -0.207707494      0.454816014     -0.490909100       13119.8955       1.59002113    
 -0.207707494      0.454816014     -0.572727323       13119.8955       1.59002113    
 -0.327430397      0.377874792     -0.572727323       13119.8955       1.59002113    
 -0.420626789      0.270320386     -0.490909100       10212.9883       1.59002101    
 -0.327430397      0.377874792     -0.490909100       10212.9883       1.59002101    
 -0.327430397      0.377874792     -0.572727323       10212.9883       1.59002101    
 -0.420626789      0.270320386     -0.572727323       10212.9883       1.59002101    
 -0.479746491      0.140866295     -0.490909100       6478.66699       1.59002090    
 -0.420626789      0.270320386     -0.490909100       6478.66699       1.59002090    
 -0.420626789      0.270320386     -0.572727323       6478.66699       1.59002090    
 -0.479746491      0.140866295     -0.572727323       6478.66699       1.59002090    
 -0.500000000       2.84000009E-16 -0.490909100       2219.49219       1.59002078    
 -0.479746491      0.140866295     -0.490909100       2219.49219       1.59002078    
 -0.479746491      0.140866295     -0.572727323       2219.49219       1.59002078    
 -0.500000000       2.84000009E-16 -0.572727323       2219.49219       1.59002078    
  0.479746491      0.140866295     -0.572727323       2316.64160       1.57892215    
  0.500000000       0.00000000     -0.572727323       2316.64160       1.57892215    
  0.500000000       0.00000000     -0.654545426       2316.64160       1.57892215    
  0.479746491      0.140866295     -0.654545426       2316.64160       1.57892215    
  0.420626789      0.270320386     -0.572727323       6762.24023       1.57892203    
  0.479746491      0.140866295     -0.572727323       6762.24023       1.57892203    
  0.479746491      0.140866295     -0.654545426       6762.24023       1.57892203    
  0.420626789      0.270320386     -0.654545426       6762.24023       1.57892203    
  0.327430397      0.377874792     -0.572727323       10659.9824       1.57892215    
  0.420626789      0.270320386     -0.572727323       10659.9824       1.57892215    
  0.420626789      0.270320386     -0.654545426       10659.9824       1.57892215    
  0.327430397      0.377874792     -0.654545426       10659.9824       1.57892215    
  0.207707494      0.454816014     -0.572727323       13694.1494       1.57892227    
  0.327430397      0.377874792     -0.572727323       13694.1494       1.57892227    
  0.327430397      0.377874792     -0.654545426       13694.1494       1.57892227    
  0.207707494      0.454816014     -0.654545426       13694.1494       1.57892227    
   7.11574182E-02  0.494910687     -0.572727323       15618.8740       1.57892227    
  0.207707494      0.454816014     -0.572727323       15618.8740       1.57892227    
  0.207707494      0.454816014     -0.654545426       15618.8740       1.57892227    
   7.11574182E-02  0.494910687     -0.654545426       15618.8740       1.57892227    
  -7.11574182E-02  0.494910687     -0.572727323       16278.2529       1.57892227    
   7.11574182E-02  0.494910687     -0.572727323       16278.2529       1.57892227    
   7.11574182E-02  0.494910687     -0.654545426       16278.2529       1.57892227    
  -7.11574182E-02  0.494910687     -0.654545426       16278.2529       1.57892227    
 -0.207707494      0.454816014     -0.572727323       15618.8760       1.57892227    
  -7.11574182E-02  0.494910687     -0.572727323       15618.8760       1.57892227    
  -7.11574182E-02  0.494910687     -0.654545426       15618.8760       1.57892227    
 -0.207707494      0.454816014     -0.654545426       15618.8760       1.57892227    
 -0.327430397      0.377874792     -0.572727323       13694.1445       1.57892227    
 -0.207707494      0.454816014     -0.572727323       13694.1445       1.57892227    
 -0.207707494      0.454816014     -0.654545426       13694.1445       1.57892227    
 -0.327430397      0.377874792     -0.654545426       13694.1445       1.57892227    
 -0.420626789      0.270320386     -0.572727323       10659.9824       1.57892239    
 -0.327430397      0.377874792     -0.572727323       10659.9824       1.57892239    
 -0.327430397      0.377874792     -0.654545426       10659.9824       1.57892239    
 -0.420626789      0.270320386     -0.654545426       10659.9824       1.57892239    
 -0.479746491      0.140866295     -0.572727323       6762.23828       1.57892215    
 -0.420626789      0.270320386     -0.572727323       6762.23828       1.57892215    
 -0.420626789      0.270320386     -0.654545426       6762.23828       1.57892215    