 VARIABLES="X" "Y" "Z" "abs(p) (Pa)" "angle(p) (rad)"
ZONE N=    528,E =     462, F=FEPOINT, ET=QUADRILATERAL
  0.479746491      0.140866295       0.00000000       572.743652      -2.50393677    
  0.500000000       0.00000000       0.00000000       572.743652      -2.50393677    
  0.500000000       0.00000000      -8.18181783E-02   572.743652      -2.50393677    
  0.479746491      0.140866295      -8.18181783E-02   572.743652      -2.50393677    
  0.420626789      0.270320386       0.00000000       526.343079      -2.50393677    
  0.479746491      0.140866295       0.00000000       526.343079      -2.50393677    
  0.479746491      0.140866295      -8.18181783E-02   526.343079      -2.50393677    
  0.420626789      0.270320386      -8.18181783E-02   526.343079      -2.50393677    
  0.327430397      0.377874792       0.00000000       437.301788      -2.50393701    
  0.420626789      0.270320386       0.00000000       437.301788      -2.50393701    
  0.420626789      0.270320386      -8.18181783E-02   437.301788      -2.50393701    
  0.327430397      0.377874792      -8.18181783E-02   437.301788      -2.50393701    
  0.207707494      0.454816014       0.00000000       312.832672      -2.50393653    
  0.327430397      0.377874792       0.00000000       312.832672      -2.50393653    
  0.327430397      0.377874792      -8.18181783E-02   312.832672      -2.50393653    
  0.207707494      0.454816014      -8.18181783E-02   312.832672      -2.50393653    
   7.11574182E-02  0.494910687       0.00000000       163.019913      -2.50393653    
  0.207707494      0.454816014       0.00000000       163.019913      -2.50393653    
  0.207707494      0.454816014      -8.18181783E-02   163.019913      -2.50393653    
   7.11574182E-02  0.494910687      -8.18181783E-02   163.019913      -2.50393653    
  -7.11574182E-02  0.494910687       0.00000000       1.10810586E-04  0.911860764    
   7.11574182E-02  0.494910687       0.00000000       1.10810586E-04  0.911860764    
   7.11574182E-02  0.494910687      -8.18181783E-02   1.10810586E-04  0.911860764    
  -7.11574182E-02  0.494910687      -8.18181783E-02   1.10810586E-04  0.911860764    
 -0.207707494      0.454816014       0.00000000       163.019989      0.637655675    
  -7.11574182E-02  0.494910687       0.00000000       163.019989      0.637655675    
  -7.11574182E-02  0.494910687      -8.18181783E-02   163.019989      0.637655675    
 -0.207707494      0.454816014      -8.18181783E-02   163.019989      0.637655675    
 -0.327430397      0.377874792       0.00000000       312.832703      0.637655675    
 -0.207707494      0.454816014       0.00000000       312.832703      0.637655675    
 -0.207707494      0.454816014      -8.18181783E-02   312.832703      0.637655675    
 -0.327430397      0.377874792      -8.18181783E-02   312.832703      0.637655675    
 -0.420626789      0.270320386       0.00000000       437.301758      0.637655616    
 -0.327430397      0.377874792       0.00000000       437.301758      0.637655616    
 -0.327430397      0.377874792      -8.18181783E-02   437.301758      0.637655616    
 -0.420626789      0.270320386      -8.18181783E-02   437.301758      0.637655616    
 -0.479746491      0.140866295       0.00000000       526.342957      0.637655854    
 -0.420626789      0.270320386       0.00000000       526.342957      0.637655854    
 -0.420626789      0.270320386      -8.18181783E-02   526.342957      0.637655854    
 -0.479746491      0.140866295      -8.18181783E-02   526.342957      0.637655854    
 -0.500000000       2.84000009E-16   0.00000000       572.743652      0.637656093    
 -0.479746491      0.140866295       0.00000000       572.743652      0.637656093    
 -0.479746491      0.140866295      -8.18181783E-02   572.743652      0.637656093    
 -0.500000000       2.84000009E-16  -8.18181783E-02   572.743652      0.637656093    
  0.479746491      0.140866295      -8.18181783E-02   325.189453      -2.79773068    
  0.500000000       0.00000000      -8.18181783E-02   325.189453      -2.79773068    
  0.500000000       0.00000000     -0.163636401       325.189453      -2.79773068    
  0.479746491      0.140866295     -0.163636401       325.189453      -2.79773068    
  0.420626789      0.270320386      -8.18181783E-02   298.844574      -2.79773068    
  0.479746491      0.140866295      -8.18181783E-02   298.844574      -2.79773068    
  0.479746491      0.140866295     -0.163636401       298.844574      -2.79773068    
  0.420626789      0.270320386     -0.163636401       298.844574      -2.79773068    
  0.327430397      0.377874792      -8.18181783E-02   248.289017      -2.79773116    
  0.420626789      0.270320386      -8.18181783E-02   248.289017      -2.79773116    
  0.420626789      0.270320386     -0.163636401       248.289017      -2.79773116    
  0.327430397      0.377874792     -0.163636401       248.289017      -2.79773116    
  0.207707494      0.454816014      -8.18181783E-02   177.618454      -2.79773211    
  0.327430397      0.377874792      -8.18181783E-02   177.618454      -2.79773211    
  0.327430397      0.377874792     -0.163636401       177.618454      -2.79773211    
  0.207707494      0.454816014     -0.163636401       177.618454      -2.79773211    
   7.11574182E-02  0.494910687      -8.18181783E-02   92.5585327      -2.79773092    
  0.207707494      0.454816014      -8.18181783E-02   92.5585327      -2.79773092    
  0.207707494      0.454816014     -0.163636401       92.5585327      -2.79773092    
   7.11574182E-02  0.494910687     -0.163636401       92.5585327      -2.79773092    
  -7.11574182E-02  0.494910687      -8.18181783E-02   2.48136585E-05 -0.197033942    
   7.11574182E-02  0.494910687      -8.18181783E-02   2.48136585E-05 -0.197033942    
   7.11574182E-02  0.494910687     -0.163636401       2.48136585E-05 -0.197033942    
  -7.11574182E-02  0.494910687     -0.163636401       2.48136585E-05 -0.197033942    
 -0.207707494      0.454816014      -8.18181783E-02   92.5586014      0.343861908    
  -7.11574182E-02  0.494910687      -8.18181783E-02   92.5586014      0.343861908    
  -7.11574182E-02  0.494910687     -0.163636401       92.5586014      0.343861908    
 -0.207707494      0.454816014     -0.163636401       92.5586014      0.343861908    
 -0.327430397      0.377874792      -8.18181783E-02   177.618530      0.343860805    
 -0.207707494      0.454816014      -8.18181783E-02   177.618530      0.343860805    
 -0.207707494      0.454816014     -0.163636401       177.618530      0.343860805    
 -0.327430397      0.377874792     -0.163636401       177.618530      0.343860805    
 -0.420626789      0.270320386      -8.18181783E-02   248.289047      0.343861818    
 -0.327430397      0.377874792      -8.18181783E-02   248.289047      0.343861818    
 -0.327430397      0.377874792     -0.163636401       248.289047      0.343861818    
 -0.420626789      0.270320386     -0.163636401       248.289047      0.343861818    
 -0.479746491      0.140866295      -8.18181783E-02   298.844513      0.343861490    
 -0.420626789      0.270320386      -8.18181783E-02   298.844513      0.343861490    
 -0.420626789      0.270320386     -0.163636401       298.844513      0.343861490    
 -0.479746491      0.140866295     -0.163636401       298.844513      0.343861490    
 -0.500000000       2.84000009E-16  -8.18181783E-02   325.189392      0.343861729    
 -0.479746491      0.140866295      -8.18181783E-02   325.189392      0.343861729    
 -0.479746491      0.140866295     -0.163636401       325.189392      0.343861729    
 -0.500000000       2.84000009E-16 -0.163636401       325.189392      0.343861729    
  0.479746491      0.140866295     -0.163636401       242.870010       2.56588554    
  0.500000000       0.00000000     -0.163636401       242.870010       2.56588554    
  0.500000000       0.00000000     -0.245454505       242.870010       2.56588554    
  0.479746491      0.140866295     -0.245454505       242.870010       2.56588554    
  0.420626789      0.270320386     -0.163636401       223.194077       2.56588411    
  0.479746491      0.140866295     -0.163636401       223.194077       2.56588411    
  0.479746491      0.140866295     -0.245454505       223.194077       2.56588411    
  0.420626789      0.270320386     -0.245454505       223.194077       2.56588411    
  0.327430397      0.377874792     -0.163636401       185.436310       2.56588602    
  0.420626789      0.270320386     -0.163636401       185.436310       2.56588602    
  0.420626789      0.270320386     -0.245454505       185.436310       2.56588602    
  0.327430397      0.377874792     -0.245454505       185.436310       2.56588602    
  0.207707494      0.454816014     -0.163636401       132.655518       2.56588578    
  0.327430397      0.377874792     -0.163636401       132.655518       2.56588578    
  0.327430397      0.377874792     -0.245454505       132.655518       2.56588578    
  0.207707494      0.454816014     -0.245454505       132.655518       2.56588578    
   7.11574182E-02  0.494910687     -0.163636401       69.1278992       2.56588578    
  0.207707494      0.454816014     -0.163636401       69.1278992       2.56588578    
  0.207707494      0.454816014     -0.245454505       69.1278992       2.56588578    
   7.11574182E-02  0.494910687     -0.245454505       69.1278992       2.56588578    
  -7.11574182E-02  0.494910687     -0.163636401       2.65114832E-05  0.460171938    
   7.11574182E-02  0.494910687     -0.163636401       2.65114832E-05  0.460171938    
   7.11574182E-02  0.494910687     -0.245454505       2.65114832E-05  0.460171938    
  -7.11574182E-02  0.494910687     -0.245454505       2.65114832E-05  0.460171938    
 -0.207707494      0.454816014     -0.163636401       69.1279373     -0.575706065    
  -7.11574182E-02  0.494910687     -0.163636401       69.1279373     -0.575706065    
  -7.11574182E-02  0.494910687     -0.245454505       69.1279373     -0.575706065    
 -0.207707494      0.454816014     -0.245454505       69.1279373     -0.575706065    
 -0.327430397      0.377874792     -0.163636401       132.655441     -0.575705469    
 -0.207707494      0.454816014     -0.163636401       132.655441     -0.575705469    
 -0.207707494      0.454816014     -0.245454505       132.655441     -0.575705469    
 -0.327430397      0.377874792     -0.245454505       132.655441     -0.575705469    
 -0.420626789      0.270320386     -0.163636401       185.436340     -0.575706661    
 -0.327430397      0.377874792     -0.163636401       185.436340     -0.575706661    
 -0.327430397      0.377874792     -0.245454505       185.436340     -0.575706661    
 -0.420626789      0.270320386     -0.245454505       185.436340     -0.575706661    
 -0.479746491      0.140866295     -0.163636401       223.194000     -0.575708032    
 -0.420626789      0.270320386     -0.163636401       223.194000     -0.575708032    
 -0.420626789      0.270320386     -0.245454505       223.194000     -0.575708032    
 -0.479746491      0.140866295     -0.245454505       223.194000     -0.575708032    
 -0.500000000       2.84000009E-16 -0.163636401       242.870041     -0.575707257    
 -0.479746491      0.140866295     -0.163636401       242.870041     -0.575707257    
 -0.479746491      0.140866295     -0.245454505       242.870041     -0.575707257    
 -0.500000000       2.84000009E-16 -0.245454505       242.870041     -0.575707257    
  0.479746491      0.140866295     -0.245454505       389.944580       1.92576373    
  0.500000000       0.00000000     -0.245454505       389.944580       1.92576373    
  0.500000000       0.00000000     -0.327272713       389.944580       1.92576373    
  0.479746491      0.140866295     -0.327272713       389.944580       1.92576373    
  0.420626789      0.270320386     -0.245454505       358.353333       1.92576373    
  0.479746491      0.140866295     -0.245454505       358.353333       1.92576373    
  0.479746491      0.140866295     -0.327272713       358.353333       1.92576373    
  0.420626789      0.270320386     -0.327272713       358.353333       1.92576373    
  0.327430397      0.377874792     -0.245454505       297.730682       1.92576373    
  0.420626789      0.270320386     -0.245454505       297.730682       1.92576373    
  0.420626789      0.270320386     -0.327272713       297.730682       1.92576373    
  0.327430397      0.377874792     -0.327272713       297.730682       1.92576373    
  0.207707494      0.454816014     -0.245454505       212.987656       1.92576385    
  0.327430397      0.377874792     -0.245454505       212.987656       1.92576385    
  0.327430397      0.377874792     -0.327272713       212.987656       1.92576385    
  0.207707494      0.454816014     -0.327272713       212.987656       1.92576385    
   7.11574182E-02  0.494910687     -0.245454505       110.989639       1.92576420    
  0.207707494      0.454816014     -0.245454505       110.989639       1.92576420    
  0.207707494      0.454816014     -0.327272713       110.989639       1.92576420    
   7.11574182E-02  0.494910687     -0.327272713       110.989639       1.92576420    
  -7.11574182E-02  0.494910687     -0.245454505       5.21272050E-05   1.55663145    
   7.11574182E-02  0.494910687     -0.245454505       5.21272050E-05   1.55663145    
   7.11574182E-02  0.494910687     -0.327272713       5.21272050E-05   1.55663145    
  -7.11574182E-02  0.494910687     -0.327272713       5.21272050E-05   1.55663145    
 -0.207707494      0.454816014     -0.245454505       110.989708      -1.21582830    
  -7.11574182E-02  0.494910687     -0.245454505       110.989708      -1.21582830    
  -7.11574182E-02  0.494910687     -0.327272713       110.989708      -1.21582830    
 -0.207707494      0.454816014     -0.327272713       110.989708      -1.21582830    
 -0.327430397      0.377874792     -0.245454505       212.987701      -1.21582878    
 -0.207707494      0.454816014     -0.245454505       212.987701      -1.21582878    
 -0.207707494      0.454816014     -0.327272713       212.987701      -1.21582878    
 -0.327430397      0.377874792     -0.327272713       212.987701      -1.21582878    
 -0.420626789      0.270320386     -0.245454505       297.730682      -1.21582890    
 -0.327430397      0.377874792     -0.245454505       297.730682      -1.21582890    
 -0.327430397      0.377874792     -0.327272713       297.730682      -1.21582890    
 -0.420626789      0.270320386     -0.327272713       297.730682      -1.21582890    
 -0.479746491      0.140866295     -0.245454505       358.353424      -1.21582901    
 -0.420626789      0.270320386     -0.245454505       358.353424      -1.21582901    
 -0.420626789      0.270320386     -0.327272713       358.353424      -1.21582901    
 -0.479746491      0.140866295     -0.327272713       358.353424      -1.21582901    
 -0.500000000       2.84000009E-16 -0.245454505       389.944489      -1.21582878    
 -0.479746491      0.140866295     -0.245454505       389.944489      -1.21582878    
 -0.479746491      0.140866295     -0.327272713       389.944489      -1.21582878    
 -0.500000000       2.84000009E-16 -0.327272713       389.944489      -1.21582878    
  0.479746491      0.140866295     -0.327272713       588.904541       1.72572613    
  0.500000000       0.00000000     -0.327272713       588.904541       1.72572613    
  0.500000000       0.00000000     -0.409090906       588.904541       1.72572613    
  0.479746491      0.140866295     -0.409090906       588.904541       1.72572613    
  0.420626789      0.270320386     -0.327272713       541.194641       1.72572625    
  0.479746491      0.140866295     -0.327272713       541.194641       1.72572625    
  0.479746491      0.140866295     -0.409090906       541.194641       1.72572625    
  0.420626789      0.270320386     -0.409090906       541.194641       1.72572625    
  0.327430397      0.377874792     -0.327272713       449.641052       1.72572601    
  0.420626789      0.270320386     -0.327272713       449.641052       1.72572601    
  0.420626789      0.270320386     -0.409090906       449.641052       1.72572601    
  0.327430397      0.377874792     -0.409090906       449.641052       1.72572601    
  0.207707494      0.454816014     -0.327272713       321.659973       1.72572601    
  0.327430397      0.377874792     -0.327272713       321.659973       1.72572601    
  0.327430397      0.377874792     -0.409090906       321.659973       1.72572601    
  0.207707494      0.454816014     -0.409090906       321.659973       1.72572601    
   7.11574182E-02  0.494910687     -0.327272713       167.619751       1.72572613    
  0.207707494      0.454816014     -0.327272713       167.619751       1.72572613    
  0.207707494      0.454816014     -0.409090906       167.619751       1.72572613    
   7.11574182E-02  0.494910687     -0.409090906       167.619751       1.72572613    
  -7.11574182E-02  0.494910687     -0.327272713       9.50394533E-05   1.49451697    
   7.11574182E-02  0.494910687     -0.327272713       9.50394533E-05   1.49451697    
   7.11574182E-02  0.494910687     -0.409090906       9.50394533E-05   1.49451697    
  -7.11574182E-02  0.494910687     -0.409090906       9.50394533E-05   1.49451697    
 -0.207707494      0.454816014     -0.327272713       167.619873      -1.41586661    
  -7.11574182E-02  0.494910687     -0.327272713       167.619873      -1.41586661    
  -7.11574182E-02  0.494910687     -0.409090906       167.619873      -1.41586661    
 -0.207707494      0.454816014     -0.409090906       167.619873      -1.41586661    
 -0.327430397      0.377874792     -0.327272713       321.660187      -1.41586673    
 -0.207707494      0.454816014     -0.327272713       321.660187      -1.41586673    
 -0.207707494      0.454816014     -0.409090906       321.660187      -1.41586673    
 -0.327430397      0.377874792     -0.409090906       321.660187      -1.41586673    
 -0.420626789      0.270320386     -0.327272713       449.641052      -1.41586649    
 -0.327430397      0.377874792     -0.327272713       449.641052      -1.41586649    
 -0.327430397      0.377874792     -0.409090906       449.641052      -1.41586649    
 -0.420626789      0.270320386     -0.409090906       449.641052      -1.41586649    
 -0.479746491      0.140866295     -0.327272713       541.194763      -1.41586637    
 -0.420626789      0.270320386     -0.327272713       541.194763      -1.41586637    
 -0.420626789      0.270320386     -0.409090906       541.194763      -1.41586637    
 -0.479746491      0.140866295     -0.409090906       541.194763      -1.41586637    
 -0.500000000       2.84000009E-16 -0.327272713       588.904358      -1.41586637    
 -0.479746491      0.140866295     -0.327272713       588.904358      -1.41586637    
 -0.479746491      0.140866295     -0.409090906       588.904358      -1.41586637    
 -0.500000000       2.84000009E-16 -0.409090906       588.904358      -1.41586637    
  0.479746491      0.140866295     -0.409090906       778.324768       1.64828312    
  0.500000000       0.00000000     -0.409090906       778.324768       1.64828312    
  0.500000000       0.00000000     -0.490909100       778.324768       1.64828312    
  0.479746491      0.140866295     -0.490909100       778.324768       1.64828312    
  0.420626789      0.270320386     -0.409090906       715.269226       1.64828312    
  0.479746491      0.140866295     -0.409090906       715.269226       1.64828312    
  0.479746491      0.140866295     -0.490909100       715.269226       1.64828312    
  0.420626789      0.270320386     -0.490909100       715.269226       1.64828312    
  0.327430397      0.377874792     -0.409090906       594.267456       1.64828312    
  0.420626789      0.270320386     -0.409090906       594.267456       1.64828312    
  0.420626789      0.270320386     -0.490909100       594.267456       1.64828312    
  0.327430397      0.377874792     -0.490909100       594.267456       1.64828312    
  0.207707494      0.454816014     -0.409090906       425.121338       1.64828300    
  0.327430397      0.377874792     -0.409090906       425.121338       1.64828300    
  0.327430397      0.377874792     -0.490909100       425.121338       1.64828300    
  0.207707494      0.454816014     -0.490909100       425.121338       1.64828300    
   7.11574182E-02  0.494910687     -0.409090906       221.534042       1.64828324    
  0.207707494      0.454816014     -0.409090906       221.534042       1.64828324    
  0.207707494      0.454816014     -0.490909100       221.534042       1.64828324    
   7.11574182E-02  0.494910687     -0.490909100       221.534042       1.64828324    
  -7.11574182E-02  0.494910687     -0.409090906       8.73652680E-05   1.54602683    
   7.11574182E-02  0.494910687     -0.409090906       8.73652680E-05   1.54602683    
   7.11574182E-02  0.494910687     -0.490909100       8.73652680E-05   1.54602683    
  -7.11574182E-02  0.494910687     -0.490909100       8.73652680E-05   1.54602683    
 -0.207707494      0.454816014     -0.409090906       221.534134      -1.49330950    
  -7.11574182E-02  0.494910687     -0.409090906       221.534134      -1.49330950    
  -7.11574182E-02  0.494910687     -0.490909100       221.534134      -1.49330950    
 -0.207707494      0.454816014     -0.490909100       221.534134      -1.49330950    
 -0.327430397      0.377874792     -0.409090906       425.121063      -1.49330962    
 -0.207707494      0.454816014     -0.409090906       425.121063      -1.49330962    
 -0.207707494      0.454816014     -0.490909100       425.121063      -1.49330962    
 -0.327430397      0.377874792     -0.490909100       425.121063      -1.49330962    
 -0.420626789      0.270320386     -0.409090906       594.267334      -1.49330950    
 -0.327430397      0.377874792     -0.409090906       594.267334      -1.49330950    
 -0.327430397      0.377874792     -0.490909100       594.267334      -1.49330950    
 -0.420626789      0.270320386     -0.490909100       594.267334      -1.49330950    
 -0.479746491      0.140866295     -0.409090906       715.269287      -1.49330950    
 -0.420626789      0.270320386     -0.409090906       715.269287      -1.49330950    
 -0.420626789      0.270320386     -0.490909100       715.269287      -1.49330950    
 -0.479746491      0.140866295     -0.490909100       715.269287      -1.49330950    
 -0.500000000       2.84000009E-16 -0.409090906       778.324524      -1.49330950    
 -0.479746491      0.140866295     -0.409090906       778.324524      -1.49330950    
 -0.479746491      0.140866295     -0.490909100       778.324524      -1.49330950    
 -0.500000000       2.84000009E-16 -0.490909100       778.324524      -1.49330950    
  0.479746491      0.140866295     -0.490909100       941.636475       1.61378980    
  0.500000000       0.00000000     -0.490909100       941.636475       1.61378980    
  0.500000000       0.00000000     -0.572727323       941.636475       1.61378980    
  0.479746491      0.140866295     -0.572727323       941.636475       1.61378980    
  0.420626789      0.270320386     -0.490909100       865.350891       1.61378980    
  0.479746491      0.140866295     -0.490909100       865.350891       1.61378980    
  0.479746491      0.140866295     -0.572727323       865.350891       1.61378980    
  0.420626789      0.270320386     -0.572727323       865.350891       1.61378980    
  0.327430397      0.377874792     -0.490909100       718.959229       1.61378992    
  0.420626789      0.270320386     -0.490909100       718.959229       1.61378992    
  0.420626789      0.270320386     -0.572727323       718.959229       1.61378992    
  0.327430397      0.377874792     -0.572727323       718.959229       1.61378992    
  0.207707494      0.454816014     -0.490909100       514.322327       1.61378980    
  0.327430397      0.377874792     -0.490909100       514.322327       1.61378980    
  0.327430397      0.377874792     -0.572727323       514.322327       1.61378980    
  0.207707494      0.454816014     -0.572727323       514.322327       1.61378980    
   7.11574182E-02  0.494910687     -0.490909100       268.017700       1.61378992    
  0.207707494      0.454816014     -0.490909100       268.017700       1.61378992    
  0.207707494      0.454816014     -0.572727323       268.017700       1.61378992    
   7.11574182E-02  0.494910687     -0.572727323       268.017700       1.61378992    
  -7.11574182E-02  0.494910687     -0.490909100       9.70584661E-05   1.53463852    
   7.11574182E-02  0.494910687     -0.490909100       9.70584661E-05   1.53463852    
   7.11574182E-02  0.494910687     -0.572727323       9.70584661E-05   1.53463852    
  -7.11574182E-02  0.494910687     -0.572727323       9.70584661E-05   1.53463852    
 -0.207707494      0.454816014     -0.490909100       268.017731      -1.52780271    
  -7.11574182E-02  0.494910687     -0.490909100       268.017731      -1.52780271    
  -7.11574182E-02  0.494910687     -0.572727323       268.017731      -1.52780271    
 -0.207707494      0.454816014     -0.572727323       268.017731      -1.52780271    
 -0.327430397      0.377874792     -0.490909100       514.322510      -1.52780282    
 -0.207707494      0.454816014     -0.490909100       514.322510      -1.52780282    
 -0.207707494      0.454816014     -0.572727323       514.322510      -1.52780282    
 -0.327430397      0.377874792     -0.572727323       514.322510      -1.52780282    
 -0.420626789      0.270320386     -0.490909100       718.959167      -1.52780282    
 -0.327430397      0.377874792     -0.490909100       718.959167      -1.52780282    
 -0.327430397      0.377874792     -0.572727323       718.959167      -1.52780282    
 -0.420626789      0.270320386     -0.572727323       718.959167      -1.52780282    
 -0.479746491      0.140866295     -0.490909100       865.350769      -1.52780282    
 -0.420626789      0.270320386     -0.490909100       865.350769      -1.52780282    
 -0.420626789      0.270320386     -0.572727323       865.350769      -1.52780282    
 -0.479746491      0.140866295     -0.572727323       865.350769      -1.52780282    
 -0.500000000       2.84000009E-16 -0.490909100       941.636780      -1.52780282    
 -0.479746491      0.140866295     -0.490909100       941.636780      -1.52780282    
 -0.479746491      0.140866295     -0.572727323       941.636780      -1.52780282    
 -0.500000000       2.84000009E-16 -0.572727323       941.636780      -1.52780282    
  0.479746491      0.140866295     -0.572727323       1068.09778       1.59628427    
  0.500000000       0.00000000     -0.572727323       1068.09778       1.59628427    
  0.500000000       0.00000000     -0.654545426       1068.09778       1.59628427    
  0.479746491      0.140866295     -0.654545426       1068.09778       1.59628427    
  0.420626789      0.270320386     -0.572727323       981.565796       1.59628427    
  0.479746491      0.140866295     -0.572727323       981.565796       1.59628427    
  0.479746491      0.140866295     -0.654545426       981.565796       1.59628427    
  0.420626789      0.270320386     -0.654545426       981.565796       1.59628427    
  0.327430397      0.377874792     -0.572727323       815.514648       1.59628427    
  0.420626789      0.270320386     -0.572727323       815.514648       1.59628427    
  0.420626789      0.270320386     -0.654545426       815.514648       1.59628427    
  0.327430397      0.377874792     -0.654545426       815.514648       1.59628427    
  0.207707494      0.454816014     -0.572727323       583.394775       1.59628427    
  0.327430397      0.377874792     -0.572727323       583.394775       1.59628427    
  0.327430397      0.377874792     -0.654545426       583.394775       1.59628427    
  0.207707494      0.454816014     -0.654545426       583.394775       1.59628427    
   7.11574182E-02  0.494910687     -0.572727323       304.012054       1.59628427    
  0.207707494      0.454816014     -0.572727323       304.012054       1.59628427    
  0.207707494      0.454816014     -0.654545426       304.012054       1.59628427    
   7.11574182E-02  0.494910687     -0.654545426       304.012054       1.59628427    
  -7.11574182E-02  0.494910687     -0.572727323       3.86652246E-05  -1.42161930    
   7.11574182E-02  0.494910687     -0.572727323       3.86652246E-05  -1.42161930    
   7.11574182E-02  0.494910687     -0.654545426       3.86652246E-05  -1.42161930    
  -7.11574182E-02  0.494910687     -0.654545426       3.86652246E-05  -1.42161930    
 -0.207707494      0.454816014     -0.572727323       304.012177      -1.54530835    
  -7.11574182E-02  0.494910687     -0.572727323       304.012177      -1.54530835    
  -7.11574182E-02  0.494910687     -0.654545426       304.012177      -1.54530835    
 -0.207707494      0.454816014     -0.654545426       304.012177      -1.54530835    
 -0.327430397      0.377874792     -0.572727323       583.395020      -1.54530835    
 -0.207707494      0.454816014     -0.572727323       583.395020      -1.54530835    
 -0.207707494      0.454816014     -0.654545426       583.395020      -1.54530835    
 -0.327430397      0.377874792     -0.654545426       583.395020      -1.54530835    
 -0.420626789      0.270320386     -0.572727323       815.514465      -1.54530835    
 -0.327430397      0.377874792     -0.572727323       815.514465      -1.54530835    
 -0.327430397      0.377874792     -0.654545426       815.514465      -1.54530835    
 -0.420626789      0.270320386     -0.654545426       815.514465      -1.54530835    
 -0.479746491      0.140866295     -0.572727323       981.566345      -1.54530835    
 -0.420626789      0.270320386     -0.572727323       981.566345      -1.54530835    
 -0.420626789      0.270320386     -0.654545426       981.566345      -1.54530835    