 VARIABLES="X" "Y" "Z" "abs(p) (Pa)" "angle(p) (rad)"
ZONE N=    528,E =     462, F=FEPOINT, ET=QUADRILATERAL
  0.479746491      0.140866295       0.00000000       391.931335       3.06031203    
  0.500000000       0.00000000       0.00000000       391.931335       3.06031203    
  0.500000000       0.00000000      -8.18181783E-02   391.931335       3.06031203    
  0.479746491      0.140866295      -8.18181783E-02   391.931335       3.06031203    
  0.420626789      0.270320386       0.00000000       391.931854       3.06031179    
  0.479746491      0.140866295       0.00000000       391.931854       3.06031179    
  0.479746491      0.140866295      -8.18181783E-02   391.931854       3.06031179    
  0.420626789      0.270320386      -8.18181783E-02   391.931854       3.06031179    
  0.327430397      0.377874792       0.00000000       391.931335       3.06031179    
  0.420626789      0.270320386       0.00000000       391.931335       3.06031179    
  0.420626789      0.270320386      -8.18181783E-02   391.931335       3.06031179    
  0.327430397      0.377874792      -8.18181783E-02   391.931335       3.06031179    
  0.207707494      0.454816014       0.00000000       391.931427       3.06031203    
  0.327430397      0.377874792       0.00000000       391.931427       3.06031203    
  0.327430397      0.377874792      -8.18181783E-02   391.931427       3.06031203    
  0.207707494      0.454816014      -8.18181783E-02   391.931427       3.06031203    
   7.11574182E-02  0.494910687       0.00000000       391.931335       3.06031156    
  0.207707494      0.454816014       0.00000000       391.931335       3.06031156    
  0.207707494      0.454816014      -8.18181783E-02   391.931335       3.06031156    
   7.11574182E-02  0.494910687      -8.18181783E-02   391.931335       3.06031156    
  -7.11574182E-02  0.494910687       0.00000000       391.931641       3.06031227    
   7.11574182E-02  0.494910687       0.00000000       391.931641       3.06031227    
   7.11574182E-02  0.494910687      -8.18181783E-02   391.931641       3.06031227    
  -7.11574182E-02  0.494910687      -8.18181783E-02   391.931641       3.06031227    
 -0.207707494      0.454816014       0.00000000       391.931488       3.06031132    
  -7.11574182E-02  0.494910687       0.00000000       391.931488       3.06031132    
  -7.11574182E-02  0.494910687      -8.18181783E-02   391.931488       3.06031132    
 -0.207707494      0.454816014      -8.18181783E-02   391.931488       3.06031132    
 -0.327430397      0.377874792       0.00000000       391.931396       3.06031156    
 -0.207707494      0.454816014       0.00000000       391.931396       3.06031156    
 -0.207707494      0.454816014      -8.18181783E-02   391.931396       3.06031156    
 -0.327430397      0.377874792      -8.18181783E-02   391.931396       3.06031156    
 -0.420626789      0.270320386       0.00000000       391.931335       3.06031156    
 -0.327430397      0.377874792       0.00000000       391.931335       3.06031156    
 -0.327430397      0.377874792      -8.18181783E-02   391.931335       3.06031156    
 -0.420626789      0.270320386      -8.18181783E-02   391.931335       3.06031156    
 -0.479746491      0.140866295       0.00000000       391.931549       3.06031203    
 -0.420626789      0.270320386       0.00000000       391.931549       3.06031203    
 -0.420626789      0.270320386      -8.18181783E-02   391.931549       3.06031203    
 -0.479746491      0.140866295      -8.18181783E-02   391.931549       3.06031203    
 -0.500000000       2.84000009E-16   0.00000000       391.931427       3.06031179    
 -0.479746491      0.140866295       0.00000000       391.931427       3.06031179    
 -0.479746491      0.140866295      -8.18181783E-02   391.931427       3.06031179    
 -0.500000000       2.84000009E-16  -8.18181783E-02   391.931427       3.06031179    
  0.479746491      0.140866295      -8.18181783E-02   370.524292       3.04778886    
  0.500000000       0.00000000      -8.18181783E-02   370.524292       3.04778886    
  0.500000000       0.00000000     -0.163636401       370.524292       3.04778886    
  0.479746491      0.140866295     -0.163636401       370.524292       3.04778886    
  0.420626789      0.270320386      -8.18181783E-02   370.524017       3.04778862    
  0.479746491      0.140866295      -8.18181783E-02   370.524017       3.04778862    
  0.479746491      0.140866295     -0.163636401       370.524017       3.04778862    
  0.420626789      0.270320386     -0.163636401       370.524017       3.04778862    
  0.327430397      0.377874792      -8.18181783E-02   370.524139       3.04778862    
  0.420626789      0.270320386      -8.18181783E-02   370.524139       3.04778862    
  0.420626789      0.270320386     -0.163636401       370.524139       3.04778862    
  0.327430397      0.377874792     -0.163636401       370.524139       3.04778862    
  0.207707494      0.454816014      -8.18181783E-02   370.523895       3.04778814    
  0.327430397      0.377874792      -8.18181783E-02   370.523895       3.04778814    
  0.327430397      0.377874792     -0.163636401       370.523895       3.04778814    
  0.207707494      0.454816014     -0.163636401       370.523895       3.04778814    
   7.11574182E-02  0.494910687      -8.18181783E-02   370.523895       3.04778814    
  0.207707494      0.454816014      -8.18181783E-02   370.523895       3.04778814    
  0.207707494      0.454816014     -0.163636401       370.523895       3.04778814    
   7.11574182E-02  0.494910687     -0.163636401       370.523895       3.04778814    
  -7.11574182E-02  0.494910687      -8.18181783E-02   370.523743       3.04778838    
   7.11574182E-02  0.494910687      -8.18181783E-02   370.523743       3.04778838    
   7.11574182E-02  0.494910687     -0.163636401       370.523743       3.04778838    
  -7.11574182E-02  0.494910687     -0.163636401       370.523743       3.04778838    
 -0.207707494      0.454816014      -8.18181783E-02   370.523438       3.04778814    
  -7.11574182E-02  0.494910687      -8.18181783E-02   370.523438       3.04778814    
  -7.11574182E-02  0.494910687     -0.163636401       370.523438       3.04778814    
 -0.207707494      0.454816014     -0.163636401       370.523438       3.04778814    
 -0.327430397      0.377874792      -8.18181783E-02   370.523804       3.04778838    
 -0.207707494      0.454816014      -8.18181783E-02   370.523804       3.04778838    
 -0.207707494      0.454816014     -0.163636401       370.523804       3.04778838    
 -0.327430397      0.377874792     -0.163636401       370.523804       3.04778838    
 -0.420626789      0.270320386      -8.18181783E-02   370.523895       3.04778838    
 -0.327430397      0.377874792      -8.18181783E-02   370.523895       3.04778838    
 -0.327430397      0.377874792     -0.163636401       370.523895       3.04778838    
 -0.420626789      0.270320386     -0.163636401       370.523895       3.04778838    
 -0.479746491      0.140866295      -8.18181783E-02   370.524231       3.04778862    
 -0.420626789      0.270320386      -8.18181783E-02   370.524231       3.04778862    
 -0.420626789      0.270320386     -0.163636401       370.524231       3.04778862    
 -0.479746491      0.140866295     -0.163636401       370.524231       3.04778862    
 -0.500000000       2.84000009E-16  -8.18181783E-02   370.523895       3.04778862    
 -0.479746491      0.140866295      -8.18181783E-02   370.523895       3.04778862    
 -0.479746491      0.140866295     -0.163636401       370.523895       3.04778862    
 -0.500000000       2.84000009E-16 -0.163636401       370.523895       3.04778862    
  0.479746491      0.140866295     -0.163636401       352.099823       3.02012706    
  0.500000000       0.00000000     -0.163636401       352.099823       3.02012706    
  0.500000000       0.00000000     -0.245454505       352.099823       3.02012706    
  0.479746491      0.140866295     -0.245454505       352.099823       3.02012706    
  0.420626789      0.270320386     -0.163636401       352.100372       3.02012777    
  0.479746491      0.140866295     -0.163636401       352.100372       3.02012777    
  0.479746491      0.140866295     -0.245454505       352.100372       3.02012777    
  0.420626789      0.270320386     -0.245454505       352.100372       3.02012777    
  0.327430397      0.377874792     -0.163636401       352.099945       3.02012706    
  0.420626789      0.270320386     -0.163636401       352.099945       3.02012706    
  0.420626789      0.270320386     -0.245454505       352.099945       3.02012706    
  0.327430397      0.377874792     -0.245454505       352.099945       3.02012706    
  0.207707494      0.454816014     -0.163636401       352.099640       3.02012706    
  0.327430397      0.377874792     -0.163636401       352.099640       3.02012706    
  0.327430397      0.377874792     -0.245454505       352.099640       3.02012706    
  0.207707494      0.454816014     -0.245454505       352.099640       3.02012706    
   7.11574182E-02  0.494910687     -0.163636401       352.100250       3.02012706    
  0.207707494      0.454816014     -0.163636401       352.100250       3.02012706    
  0.207707494      0.454816014     -0.245454505       352.100250       3.02012706    
   7.11574182E-02  0.494910687     -0.245454505       352.100250       3.02012706    
  -7.11574182E-02  0.494910687     -0.163636401       352.099945       3.02012634    
   7.11574182E-02  0.494910687     -0.163636401       352.099945       3.02012634    
   7.11574182E-02  0.494910687     -0.245454505       352.099945       3.02012634    
  -7.11574182E-02  0.494910687     -0.245454505       352.099945       3.02012634    
 -0.207707494      0.454816014     -0.163636401       352.100189       3.02012730    
  -7.11574182E-02  0.494910687     -0.163636401       352.100189       3.02012730    
  -7.11574182E-02  0.494910687     -0.245454505       352.100189       3.02012730    
 -0.207707494      0.454816014     -0.245454505       352.100189       3.02012730    
 -0.327430397      0.377874792     -0.163636401       352.099915       3.02012706    
 -0.207707494      0.454816014     -0.163636401       352.099915       3.02012706    
 -0.207707494      0.454816014     -0.245454505       352.099915       3.02012706    
 -0.327430397      0.377874792     -0.245454505       352.099915       3.02012706    
 -0.420626789      0.270320386     -0.163636401       352.099854       3.02012730    
 -0.327430397      0.377874792     -0.163636401       352.099854       3.02012730    
 -0.327430397      0.377874792     -0.245454505       352.099854       3.02012730    
 -0.420626789      0.270320386     -0.245454505       352.099854       3.02012730    
 -0.479746491      0.140866295     -0.163636401       352.100006       3.02012706    
 -0.420626789      0.270320386     -0.163636401       352.100006       3.02012706    
 -0.420626789      0.270320386     -0.245454505       352.100006       3.02012706    
 -0.479746491      0.140866295     -0.245454505       352.100006       3.02012706    
 -0.500000000       2.84000009E-16 -0.163636401       352.099976       3.02012753    
 -0.479746491      0.140866295     -0.163636401       352.099976       3.02012753    
 -0.479746491      0.140866295     -0.245454505       352.099976       3.02012753    
 -0.500000000       2.84000009E-16 -0.245454505       352.099976       3.02012753    
  0.479746491      0.140866295     -0.245454505       337.008331       2.97488785    
  0.500000000       0.00000000     -0.245454505       337.008331       2.97488785    
  0.500000000       0.00000000     -0.327272713       337.008331       2.97488785    
  0.479746491      0.140866295     -0.327272713       337.008331       2.97488785    
  0.420626789      0.270320386     -0.245454505       337.008423       2.97488832    
  0.479746491      0.140866295     -0.245454505       337.008423       2.97488832    
  0.479746491      0.140866295     -0.327272713       337.008423       2.97488832    
  0.420626789      0.270320386     -0.327272713       337.008423       2.97488832    
  0.327430397      0.377874792     -0.245454505       337.008148       2.97488785    
  0.420626789      0.270320386     -0.245454505       337.008148       2.97488785    
  0.420626789      0.270320386     -0.327272713       337.008148       2.97488785    
  0.327430397      0.377874792     -0.327272713       337.008148       2.97488785    
  0.207707494      0.454816014     -0.245454505       337.008423       2.97488761    
  0.327430397      0.377874792     -0.245454505       337.008423       2.97488761    
  0.327430397      0.377874792     -0.327272713       337.008423       2.97488761    
  0.207707494      0.454816014     -0.327272713       337.008423       2.97488761    
   7.11574182E-02  0.494910687     -0.245454505       337.008423       2.97488785    
  0.207707494      0.454816014     -0.245454505       337.008423       2.97488785    
  0.207707494      0.454816014     -0.327272713       337.008423       2.97488785    
   7.11574182E-02  0.494910687     -0.327272713       337.008423       2.97488785    
  -7.11574182E-02  0.494910687     -0.245454505       337.008362       2.97488832    
   7.11574182E-02  0.494910687     -0.245454505       337.008362       2.97488832    
   7.11574182E-02  0.494910687     -0.327272713       337.008362       2.97488832    
  -7.11574182E-02  0.494910687     -0.327272713       337.008362       2.97488832    
 -0.207707494      0.454816014     -0.245454505       337.008392       2.97488737    
  -7.11574182E-02  0.494910687     -0.245454505       337.008392       2.97488737    
  -7.11574182E-02  0.494910687     -0.327272713       337.008392       2.97488737    
 -0.207707494      0.454816014     -0.327272713       337.008392       2.97488737    
 -0.327430397      0.377874792     -0.245454505       337.008057       2.97488737    
 -0.207707494      0.454816014     -0.245454505       337.008057       2.97488737    
 -0.207707494      0.454816014     -0.327272713       337.008057       2.97488737    
 -0.327430397      0.377874792     -0.327272713       337.008057       2.97488737    
 -0.420626789      0.270320386     -0.245454505       337.008331       2.97488785    
 -0.327430397      0.377874792     -0.245454505       337.008331       2.97488785    
 -0.327430397      0.377874792     -0.327272713       337.008331       2.97488785    
 -0.420626789      0.270320386     -0.327272713       337.008331       2.97488785    
 -0.479746491      0.140866295     -0.245454505       337.008453       2.97488856    
 -0.420626789      0.270320386     -0.245454505       337.008453       2.97488856    
 -0.420626789      0.270320386     -0.327272713       337.008453       2.97488856    
 -0.479746491      0.140866295     -0.327272713       337.008453       2.97488856    
 -0.500000000       2.84000009E-16 -0.245454505       337.008484       2.97488832    
 -0.479746491      0.140866295     -0.245454505       337.008484       2.97488832    
 -0.479746491      0.140866295     -0.327272713       337.008484       2.97488832    
 -0.500000000       2.84000009E-16 -0.327272713       337.008484       2.97488832    
  0.479746491      0.140866295     -0.327272713       326.084473       2.90926671    
  0.500000000       0.00000000     -0.327272713       326.084473       2.90926671    
  0.500000000       0.00000000     -0.409090906       326.084473       2.90926671    
  0.479746491      0.140866295     -0.409090906       326.084473       2.90926671    
  0.420626789      0.270320386     -0.327272713       326.084442       2.90926719    
  0.479746491      0.140866295     -0.327272713       326.084442       2.90926719    
  0.479746491      0.140866295     -0.409090906       326.084442       2.90926719    
  0.420626789      0.270320386     -0.409090906       326.084442       2.90926719    
  0.327430397      0.377874792     -0.327272713       326.084534       2.90926743    
  0.420626789      0.270320386     -0.327272713       326.084534       2.90926743    
  0.420626789      0.270320386     -0.409090906       326.084534       2.90926743    
  0.327430397      0.377874792     -0.409090906       326.084534       2.90926743    
  0.207707494      0.454816014     -0.327272713       326.084381       2.90926576    
  0.327430397      0.377874792     -0.327272713       326.084381       2.90926576    
  0.327430397      0.377874792     -0.409090906       326.084381       2.90926576    
  0.207707494      0.454816014     -0.409090906       326.084381       2.90926576    
   7.11574182E-02  0.494910687     -0.327272713       326.084259       2.90926671    
  0.207707494      0.454816014     -0.327272713       326.084259       2.90926671    
  0.207707494      0.454816014     -0.409090906       326.084259       2.90926671    
   7.11574182E-02  0.494910687     -0.409090906       326.084259       2.90926671    
  -7.11574182E-02  0.494910687     -0.327272713       326.084076       2.90926647    
   7.11574182E-02  0.494910687     -0.327272713       326.084076       2.90926647    
   7.11574182E-02  0.494910687     -0.409090906       326.084076       2.90926647    
  -7.11574182E-02  0.494910687     -0.409090906       326.084076       2.90926647    
 -0.207707494      0.454816014     -0.327272713       326.084259       2.90926647    
  -7.11574182E-02  0.494910687     -0.327272713       326.084259       2.90926647    
  -7.11574182E-02  0.494910687     -0.409090906       326.084259       2.90926647    
 -0.207707494      0.454816014     -0.409090906       326.084259       2.90926647    
 -0.327430397      0.377874792     -0.327272713       326.084351       2.90926647    
 -0.207707494      0.454816014     -0.327272713       326.084351       2.90926647    
 -0.207707494      0.454816014     -0.409090906       326.084351       2.90926647    
 -0.327430397      0.377874792     -0.409090906       326.084351       2.90926647    
 -0.420626789      0.270320386     -0.327272713       326.084351       2.90926695    
 -0.327430397      0.377874792     -0.327272713       326.084351       2.90926695    
 -0.327430397      0.377874792     -0.409090906       326.084351       2.90926695    
 -0.420626789      0.270320386     -0.409090906       326.084351       2.90926695    
 -0.479746491      0.140866295     -0.327272713       326.084259       2.90926671    
 -0.420626789      0.270320386     -0.327272713       326.084259       2.90926671    
 -0.420626789      0.270320386     -0.409090906       326.084259       2.90926671    
 -0.479746491      0.140866295     -0.409090906       326.084259       2.90926671    
 -0.500000000       2.84000009E-16 -0.327272713       326.084473       2.90926695    
 -0.479746491      0.140866295     -0.327272713       326.084473       2.90926695    
 -0.479746491      0.140866295     -0.409090906       326.084473       2.90926695    
 -0.500000000       2.84000009E-16 -0.409090906       326.084473       2.90926695    
  0.479746491      0.140866295     -0.409090906       320.864899       2.81995678    
  0.500000000       0.00000000     -0.409090906       320.864899       2.81995678    
  0.500000000       0.00000000     -0.490909100       320.864899       2.81995678    
  0.479746491      0.140866295     -0.490909100       320.864899       2.81995678    
  0.420626789      0.270320386     -0.409090906       320.864929       2.81995702    
  0.479746491      0.140866295     -0.409090906       320.864929       2.81995702    
  0.479746491      0.140866295     -0.490909100       320.864929       2.81995702    
  0.420626789      0.270320386     -0.490909100       320.864929       2.81995702    
  0.327430397      0.377874792     -0.409090906       320.864838       2.81995654    
  0.420626789      0.270320386     -0.409090906       320.864838       2.81995654    
  0.420626789      0.270320386     -0.490909100       320.864838       2.81995654    
  0.327430397      0.377874792     -0.490909100       320.864838       2.81995654    
  0.207707494      0.454816014     -0.409090906       320.865082       2.81995630    
  0.327430397      0.377874792     -0.409090906       320.865082       2.81995630    
  0.327430397      0.377874792     -0.490909100       320.865082       2.81995630    
  0.207707494      0.454816014     -0.490909100       320.865082       2.81995630    
   7.11574182E-02  0.494910687     -0.409090906       320.864838       2.81995630    
  0.207707494      0.454816014     -0.409090906       320.864838       2.81995630    
  0.207707494      0.454816014     -0.490909100       320.864838       2.81995630    
   7.11574182E-02  0.494910687     -0.490909100       320.864838       2.81995630    
  -7.11574182E-02  0.494910687     -0.409090906       320.865082       2.81995702    
   7.11574182E-02  0.494910687     -0.409090906       320.865082       2.81995702    
   7.11574182E-02  0.494910687     -0.490909100       320.865082       2.81995702    
  -7.11574182E-02  0.494910687     -0.490909100       320.865082       2.81995702    
 -0.207707494      0.454816014     -0.409090906       320.864777       2.81995654    
  -7.11574182E-02  0.494910687     -0.409090906       320.864777       2.81995654    
  -7.11574182E-02  0.494910687     -0.490909100       320.864777       2.81995654    
 -0.207707494      0.454816014     -0.490909100       320.864777       2.81995654    
 -0.327430397      0.377874792     -0.409090906       320.865082       2.81995606    
 -0.207707494      0.454816014     -0.409090906       320.865082       2.81995606    
 -0.207707494      0.454816014     -0.490909100       320.865082       2.81995606    
 -0.327430397      0.377874792     -0.490909100       320.865082       2.81995606    
 -0.420626789      0.270320386     -0.409090906       320.864807       2.81995630    
 -0.327430397      0.377874792     -0.409090906       320.864807       2.81995630    
 -0.327430397      0.377874792     -0.490909100       320.864807       2.81995630    
 -0.420626789      0.270320386     -0.490909100       320.864807       2.81995630    
 -0.479746491      0.140866295     -0.409090906       320.865051       2.81995749    
 -0.420626789      0.270320386     -0.409090906       320.865051       2.81995749    
 -0.420626789      0.270320386     -0.490909100       320.865051       2.81995749    
 -0.479746491      0.140866295     -0.490909100       320.865051       2.81995749    
 -0.500000000       2.84000009E-16 -0.409090906       320.864990       2.81995702    
 -0.479746491      0.140866295     -0.409090906       320.864990       2.81995702    
 -0.479746491      0.140866295     -0.490909100       320.864990       2.81995702    
 -0.500000000       2.84000009E-16 -0.490909100       320.864990       2.81995702    
  0.479746491      0.140866295     -0.490909100       323.795807       2.70502114    
  0.500000000       0.00000000     -0.490909100       323.795807       2.70502114    
  0.500000000       0.00000000     -0.572727323       323.795807       2.70502114    
  0.479746491      0.140866295     -0.572727323       323.795807       2.70502114    
  0.420626789      0.270320386     -0.490909100       323.796021       2.70502114    
  0.479746491      0.140866295     -0.490909100       323.796021       2.70502114    
  0.479746491      0.140866295     -0.572727323       323.796021       2.70502114    
  0.420626789      0.270320386     -0.572727323       323.796021       2.70502114    
  0.327430397      0.377874792     -0.490909100       323.795685       2.70502090    
  0.420626789      0.270320386     -0.490909100       323.795685       2.70502090    
  0.420626789      0.270320386     -0.572727323       323.795685       2.70502090    
  0.327430397      0.377874792     -0.572727323       323.795685       2.70502090    
  0.207707494      0.454816014     -0.490909100       323.795685       2.70502043    
  0.327430397      0.377874792     -0.490909100       323.795685       2.70502043    
  0.327430397      0.377874792     -0.572727323       323.795685       2.70502043    
  0.207707494      0.454816014     -0.572727323       323.795685       2.70502043    
   7.11574182E-02  0.494910687     -0.490909100       323.795532       2.70502019    
  0.207707494      0.454816014     -0.490909100       323.795532       2.70502019    
  0.207707494      0.454816014     -0.572727323       323.795532       2.70502019    
   7.11574182E-02  0.494910687     -0.572727323       323.795532       2.70502019    
  -7.11574182E-02  0.494910687     -0.490909100       323.795837       2.70502114    
   7.11574182E-02  0.494910687     -0.490909100       323.795837       2.70502114    
   7.11574182E-02  0.494910687     -0.572727323       323.795837       2.70502114    
  -7.11574182E-02  0.494910687     -0.572727323       323.795837       2.70502114    
 -0.207707494      0.454816014     -0.490909100       323.795654       2.70502138    
  -7.11574182E-02  0.494910687     -0.490909100       323.795654       2.70502138    
  -7.11574182E-02  0.494910687     -0.572727323       323.795654       2.70502138    
 -0.207707494      0.454816014     -0.572727323       323.795654       2.70502138    
 -0.327430397      0.377874792     -0.490909100       323.795654       2.70502067    
 -0.207707494      0.454816014     -0.490909100       323.795654       2.70502067    
 -0.207707494      0.454816014     -0.572727323       323.795654       2.70502067    
 -0.327430397      0.377874792     -0.572727323       323.795654       2.70502067    
 -0.420626789      0.270320386     -0.490909100       323.795624       2.70502067    
 -0.327430397      0.377874792     -0.490909100       323.795624       2.70502067    
 -0.327430397      0.377874792     -0.572727323       323.795624       2.70502067    
 -0.420626789      0.270320386     -0.572727323       323.795624       2.70502067    
 -0.479746491      0.140866295     -0.490909100       323.795715       2.70502043    
 -0.420626789      0.270320386     -0.490909100       323.795715       2.70502043    
 -0.420626789      0.270320386     -0.572727323       323.795715       2.70502043    
 -0.479746491      0.140866295     -0.572727323       323.795715       2.70502043    
 -0.500000000       2.84000009E-16 -0.490909100       323.795746       2.70502043    
 -0.479746491      0.140866295     -0.490909100       323.795746       2.70502043    
 -0.479746491      0.140866295     -0.572727323       323.795746       2.70502043    
 -0.500000000       2.84000009E-16 -0.572727323       323.795746       2.70502043    
  0.479746491      0.140866295     -0.572727323       339.961426       2.56200242    
  0.500000000       0.00000000     -0.572727323       339.961426       2.56200242    
  0.500000000       0.00000000     -0.654545426       339.961426       2.56200242    
  0.479746491      0.140866295     -0.654545426       339.961426       2.56200242    
  0.420626789      0.270320386     -0.572727323       339.961243       2.56200361    
  0.479746491      0.140866295     -0.572727323       339.961243       2.56200361    
  0.479746491      0.140866295     -0.654545426       339.961243       2.56200361    
  0.420626789      0.270320386     -0.654545426       339.961243       2.56200361    
  0.327430397      0.377874792     -0.572727323       339.961426       2.56200171    
  0.420626789      0.270320386     -0.572727323       339.961426       2.56200171    
  0.420626789      0.270320386     -0.654545426       339.961426       2.56200171    
  0.327430397      0.377874792     -0.654545426       339.961426       2.56200171    
  0.207707494      0.454816014     -0.572727323       339.961426       2.56200266    
  0.327430397      0.377874792     -0.572727323       339.961426       2.56200266    
  0.327430397      0.377874792     -0.654545426       339.961426       2.56200266    
  0.207707494      0.454816014     -0.654545426       339.961426       2.56200266    
   7.11574182E-02  0.494910687     -0.572727323       339.961548       2.56200123    
  0.207707494      0.454816014     -0.572727323       339.961548       2.56200123    
  0.207707494      0.454816014     -0.654545426       339.961548       2.56200123    
   7.11574182E-02  0.494910687     -0.654545426       339.961548       2.56200123    
  -7.11574182E-02  0.494910687     -0.572727323       339.961456       2.56200266    
   7.11574182E-02  0.494910687     -0.572727323       339.961456       2.56200266    
   7.11574182E-02  0.494910687     -0.654545426       339.961456       2.56200266    
  -7.11574182E-02  0.494910687     -0.654545426       339.961456       2.56200266    
 -0.207707494      0.454816014     -0.572727323       339.961609       2.56200123    
  -7.11574182E-02  0.494910687     -0.572727323       339.961609       2.56200123    
  -7.11574182E-02  0.494910687     -0.654545426       339.961609       2.56200123    
 -0.207707494      0.454816014     -0.654545426       339.961609       2.56200123    
 -0.327430397      0.377874792     -0.572727323       339.961487       2.56200290    
 -0.207707494      0.454816014     -0.572727323       339.961487       2.56200290    
 -0.207707494      0.454816014     -0.654545426       339.961487       2.56200290    
 -0.327430397      0.377874792     -0.654545426       339.961487       2.56200290    
 -0.420626789      0.270320386     -0.572727323       339.961121       2.56200242    
 -0.327430397      0.377874792     -0.572727323       339.961121       2.56200242    
 -0.327430397      0.377874792     -0.654545426       339.961121       2.56200242    
 -0.420626789      0.270320386     -0.654545426       339.961121       2.56200242    
 -0.479746491      0.140866295     -0.572727323       339.961273       2.56200337    
 -0.420626789      0.270320386     -0.572727323       339.961273       2.56200337    
 -0.420626789      0.270320386     -0.654545426       339.961273       2.56200337    