 VARIABLES="X" "Y" "Z" "abs(p) (Pa)" "angle(p) (rad)"
ZONE N=    528,E =     462, F=FEPOINT, ET=QUADRILATERAL
  0.479746491      0.140866295       0.00000000       280.157776       1.58056688    
  0.500000000       0.00000000       0.00000000       280.157776       1.58056688    
  0.500000000       0.00000000      -8.18181783E-02   280.157776       1.58056688    
  0.479746491      0.140866295      -8.18181783E-02   280.157776       1.58056688    
  0.420626789      0.270320386       0.00000000       817.774109       1.58056891    
  0.479746491      0.140866295       0.00000000       817.774109       1.58056891    
  0.479746491      0.140866295      -8.18181783E-02   817.774109       1.58056891    
  0.420626789      0.270320386      -8.18181783E-02   817.774109       1.58056891    
  0.327430397      0.377874792       0.00000000       1289.14270       1.58056796    
  0.420626789      0.270320386       0.00000000       1289.14270       1.58056796    
  0.420626789      0.270320386      -8.18181783E-02   1289.14270       1.58056796    
  0.327430397      0.377874792      -8.18181783E-02   1289.14270       1.58056796    
  0.207707494      0.454816014       0.00000000       1656.06970       1.58056951    
  0.327430397      0.377874792       0.00000000       1656.06970       1.58056951    
  0.327430397      0.377874792      -8.18181783E-02   1656.06970       1.58056951    
  0.207707494      0.454816014      -8.18181783E-02   1656.06970       1.58056951    
   7.11574182E-02  0.494910687       0.00000000       1888.83081       1.58056855    
  0.207707494      0.454816014       0.00000000       1888.83081       1.58056855    
  0.207707494      0.454816014      -8.18181783E-02   1888.83081       1.58056855    
   7.11574182E-02  0.494910687      -8.18181783E-02   1888.83081       1.58056855    
  -7.11574182E-02  0.494910687       0.00000000       1968.57178       1.58056951    
   7.11574182E-02  0.494910687       0.00000000       1968.57178       1.58056951    
   7.11574182E-02  0.494910687      -8.18181783E-02   1968.57178       1.58056951    
  -7.11574182E-02  0.494910687      -8.18181783E-02   1968.57178       1.58056951    
 -0.207707494      0.454816014       0.00000000       1888.83167       1.58056867    
  -7.11574182E-02  0.494910687       0.00000000       1888.83167       1.58056867    
  -7.11574182E-02  0.494910687      -8.18181783E-02   1888.83167       1.58056867    
 -0.207707494      0.454816014      -8.18181783E-02   1888.83167       1.58056867    
 -0.327430397      0.377874792       0.00000000       1656.06995       1.58056939    
 -0.207707494      0.454816014       0.00000000       1656.06995       1.58056939    
 -0.207707494      0.454816014      -8.18181783E-02   1656.06995       1.58056939    
 -0.327430397      0.377874792      -8.18181783E-02   1656.06995       1.58056939    
 -0.420626789      0.270320386       0.00000000       1289.14343       1.58056808    
 -0.327430397      0.377874792       0.00000000       1289.14343       1.58056808    
 -0.327430397      0.377874792      -8.18181783E-02   1289.14343       1.58056808    
 -0.420626789      0.270320386      -8.18181783E-02   1289.14343       1.58056808    
 -0.479746491      0.140866295       0.00000000       817.774109       1.58056939    
 -0.420626789      0.270320386       0.00000000       817.774109       1.58056939    
 -0.420626789      0.270320386      -8.18181783E-02   817.774109       1.58056939    
 -0.479746491      0.140866295      -8.18181783E-02   817.774109       1.58056939    
 -0.500000000       2.84000009E-16   0.00000000       280.157501       1.58056366    
 -0.479746491      0.140866295       0.00000000       280.157501       1.58056366    
 -0.479746491      0.140866295      -8.18181783E-02   280.157501       1.58056366    
 -0.500000000       2.84000009E-16  -8.18181783E-02   280.157501       1.58056366    
  0.479746491      0.140866295      -8.18181783E-02   278.838623       1.58059287    
  0.500000000       0.00000000      -8.18181783E-02   278.838623       1.58059287    
  0.500000000       0.00000000     -0.163636401       278.838623       1.58059287    
  0.479746491      0.140866295     -0.163636401       278.838623       1.58059287    
  0.420626789      0.270320386      -8.18181783E-02   813.921875       1.58059156    
  0.479746491      0.140866295      -8.18181783E-02   813.921875       1.58059156    
  0.479746491      0.140866295     -0.163636401       813.921875       1.58059156    
  0.420626789      0.270320386     -0.163636401       813.921875       1.58059156    
  0.327430397      0.377874792      -8.18181783E-02   1283.06799       1.58059239    
  0.420626789      0.270320386      -8.18181783E-02   1283.06799       1.58059239    
  0.420626789      0.270320386     -0.163636401       1283.06799       1.58059239    
  0.327430397      0.377874792     -0.163636401       1283.06799       1.58059239    
  0.207707494      0.454816014      -8.18181783E-02   1648.26697       1.58059251    
  0.327430397      0.377874792      -8.18181783E-02   1648.26697       1.58059251    
  0.327430397      0.377874792     -0.163636401       1648.26697       1.58059251    
  0.207707494      0.454816014     -0.163636401       1648.26697       1.58059251    
   7.11574182E-02  0.494910687      -8.18181783E-02   1879.93176       1.58059216    
  0.207707494      0.454816014      -8.18181783E-02   1879.93176       1.58059216    
  0.207707494      0.454816014     -0.163636401       1879.93176       1.58059216    
   7.11574182E-02  0.494910687     -0.163636401       1879.93176       1.58059216    
  -7.11574182E-02  0.494910687      -8.18181783E-02   1959.30054       1.58059204    
   7.11574182E-02  0.494910687      -8.18181783E-02   1959.30054       1.58059204    
   7.11574182E-02  0.494910687     -0.163636401       1959.30054       1.58059204    
  -7.11574182E-02  0.494910687     -0.163636401       1959.30054       1.58059204    
 -0.207707494      0.454816014      -8.18181783E-02   1879.93079       1.58059251    
  -7.11574182E-02  0.494910687      -8.18181783E-02   1879.93079       1.58059251    
  -7.11574182E-02  0.494910687     -0.163636401       1879.93079       1.58059251    
 -0.207707494      0.454816014     -0.163636401       1879.93079       1.58059251    
 -0.327430397      0.377874792      -8.18181783E-02   1648.26721       1.58059251    
 -0.207707494      0.454816014      -8.18181783E-02   1648.26721       1.58059251    
 -0.207707494      0.454816014     -0.163636401       1648.26721       1.58059251    
 -0.327430397      0.377874792     -0.163636401       1648.26721       1.58059251    
 -0.420626789      0.270320386      -8.18181783E-02   1283.06775       1.58059239    
 -0.327430397      0.377874792      -8.18181783E-02   1283.06775       1.58059239    
 -0.327430397      0.377874792     -0.163636401       1283.06775       1.58059239    
 -0.420626789      0.270320386     -0.163636401       1283.06775       1.58059239    
 -0.479746491      0.140866295      -8.18181783E-02   813.921875       1.58059096    
 -0.420626789      0.270320386      -8.18181783E-02   813.921875       1.58059096    
 -0.420626789      0.270320386     -0.163636401       813.921875       1.58059096    
 -0.479746491      0.140866295     -0.163636401       813.921875       1.58059096    
 -0.500000000       2.84000009E-16  -8.18181783E-02   278.839417       1.58059371    
 -0.479746491      0.140866295      -8.18181783E-02   278.839417       1.58059371    
 -0.479746491      0.140866295     -0.163636401       278.839417       1.58059371    
 -0.500000000       2.84000009E-16 -0.163636401       278.839417       1.58059371    
  0.479746491      0.140866295     -0.163636401       276.490112       1.58063650    
  0.500000000       0.00000000     -0.163636401       276.490112       1.58063650    
  0.500000000       0.00000000     -0.245454505       276.490112       1.58063650    
  0.479746491      0.140866295     -0.245454505       276.490112       1.58063650    
  0.420626789      0.270320386     -0.163636401       807.062378       1.58064115    
  0.479746491      0.140866295     -0.163636401       807.062378       1.58064115    
  0.479746491      0.140866295     -0.245454505       807.062378       1.58064115    
  0.420626789      0.270320386     -0.245454505       807.062378       1.58064115    
  0.327430397      0.377874792     -0.163636401       1272.25623       1.58064044    
  0.420626789      0.270320386     -0.163636401       1272.25623       1.58064044    
  0.420626789      0.270320386     -0.245454505       1272.25623       1.58064044    
  0.327430397      0.377874792     -0.245454505       1272.25623       1.58064044    
  0.207707494      0.454816014     -0.163636401       1634.38062       1.58064055    
  0.327430397      0.377874792     -0.163636401       1634.38062       1.58064055    
  0.327430397      0.377874792     -0.245454505       1634.38062       1.58064055    
  0.207707494      0.454816014     -0.245454505       1634.38062       1.58064055    
   7.11574182E-02  0.494910687     -0.163636401       1864.09460       1.58064008    
  0.207707494      0.454816014     -0.163636401       1864.09460       1.58064008    
  0.207707494      0.454816014     -0.245454505       1864.09460       1.58064008    
   7.11574182E-02  0.494910687     -0.245454505       1864.09460       1.58064008    
  -7.11574182E-02  0.494910687     -0.163636401       1942.79126       1.58063984    
   7.11574182E-02  0.494910687     -0.163636401       1942.79126       1.58063984    
   7.11574182E-02  0.494910687     -0.245454505       1942.79126       1.58063984    
  -7.11574182E-02  0.494910687     -0.245454505       1942.79126       1.58063984    
 -0.207707494      0.454816014     -0.163636401       1864.09436       1.58064008    
  -7.11574182E-02  0.494910687     -0.163636401       1864.09436       1.58064008    
  -7.11574182E-02  0.494910687     -0.245454505       1864.09436       1.58064008    
 -0.207707494      0.454816014     -0.245454505       1864.09436       1.58064008    
 -0.327430397      0.377874792     -0.163636401       1634.37964       1.58064032    
 -0.207707494      0.454816014     -0.163636401       1634.37964       1.58064032    
 -0.207707494      0.454816014     -0.245454505       1634.37964       1.58064032    
 -0.327430397      0.377874792     -0.245454505       1634.37964       1.58064032    
 -0.420626789      0.270320386     -0.163636401       1272.25757       1.58063984    
 -0.327430397      0.377874792     -0.163636401       1272.25757       1.58063984    
 -0.327430397      0.377874792     -0.245454505       1272.25757       1.58063984    
 -0.420626789      0.270320386     -0.245454505       1272.25757       1.58063984    
 -0.479746491      0.140866295     -0.163636401       807.063171       1.58064139    
 -0.420626789      0.270320386     -0.163636401       807.063171       1.58064139    
 -0.420626789      0.270320386     -0.245454505       807.063171       1.58064139    
 -0.479746491      0.140866295     -0.245454505       807.063171       1.58064139    
 -0.500000000       2.84000009E-16 -0.163636401       276.490112       1.58063698    
 -0.479746491      0.140866295     -0.163636401       276.490112       1.58063698    
 -0.479746491      0.140866295     -0.245454505       276.490112       1.58063698    
 -0.500000000       2.84000009E-16 -0.245454505       276.490112       1.58063698    
  0.479746491      0.140866295     -0.245454505       273.477386       1.58070493    
  0.500000000       0.00000000     -0.245454505       273.477386       1.58070493    
  0.500000000       0.00000000     -0.327272713       273.477386       1.58070493    
  0.479746491      0.140866295     -0.327272713       273.477386       1.58070493    
  0.420626789      0.270320386     -0.245454505       798.274597       1.58070457    
  0.479746491      0.140866295     -0.245454505       798.274597       1.58070457    
  0.479746491      0.140866295     -0.327272713       798.274597       1.58070457    
  0.420626789      0.270320386     -0.327272713       798.274597       1.58070457    
  0.327430397      0.377874792     -0.245454505       1258.39746       1.58070481    
  0.420626789      0.270320386     -0.245454505       1258.39746       1.58070481    
  0.420626789      0.270320386     -0.327272713       1258.39746       1.58070481    
  0.327430397      0.377874792     -0.327272713       1258.39746       1.58070481    
  0.207707494      0.454816014     -0.245454505       1616.57446       1.58070469    
  0.327430397      0.377874792     -0.245454505       1616.57446       1.58070469    
  0.327430397      0.377874792     -0.327272713       1616.57446       1.58070469    
  0.207707494      0.454816014     -0.327272713       1616.57446       1.58070469    
   7.11574182E-02  0.494910687     -0.245454505       1843.78540       1.58070493    
  0.207707494      0.454816014     -0.245454505       1843.78540       1.58070493    
  0.207707494      0.454816014     -0.327272713       1843.78540       1.58070493    
   7.11574182E-02  0.494910687     -0.327272713       1843.78540       1.58070493    
  -7.11574182E-02  0.494910687     -0.245454505       1921.62427       1.58070469    
   7.11574182E-02  0.494910687     -0.245454505       1921.62427       1.58070469    
   7.11574182E-02  0.494910687     -0.327272713       1921.62427       1.58070469    
  -7.11574182E-02  0.494910687     -0.327272713       1921.62427       1.58070469    
 -0.207707494      0.454816014     -0.245454505       1843.78491       1.58070493    
  -7.11574182E-02  0.494910687     -0.245454505       1843.78491       1.58070493    
  -7.11574182E-02  0.494910687     -0.327272713       1843.78491       1.58070493    
 -0.207707494      0.454816014     -0.327272713       1843.78491       1.58070493    
 -0.327430397      0.377874792     -0.245454505       1616.57446       1.58070481    
 -0.207707494      0.454816014     -0.245454505       1616.57446       1.58070481    
 -0.207707494      0.454816014     -0.327272713       1616.57446       1.58070481    
 -0.327430397      0.377874792     -0.327272713       1616.57446       1.58070481    
 -0.420626789      0.270320386     -0.245454505       1258.39880       1.58070457    
 -0.327430397      0.377874792     -0.245454505       1258.39880       1.58070457    
 -0.327430397      0.377874792     -0.327272713       1258.39880       1.58070457    
 -0.420626789      0.270320386     -0.327272713       1258.39880       1.58070457    
 -0.479746491      0.140866295     -0.245454505       798.274841       1.58070445    
 -0.420626789      0.270320386     -0.245454505       798.274841       1.58070445    
 -0.420626789      0.270320386     -0.327272713       798.274841       1.58070445    
 -0.479746491      0.140866295     -0.327272713       798.274841       1.58070445    
 -0.500000000       2.84000009E-16 -0.245454505       273.477112       1.58070636    
 -0.479746491      0.140866295     -0.245454505       273.477112       1.58070636    
 -0.479746491      0.140866295     -0.327272713       273.477112       1.58070636    
 -0.500000000       2.84000009E-16 -0.327272713       273.477112       1.58070636    
  0.479746491      0.140866295     -0.327272713       269.781921       1.58078289    
  0.500000000       0.00000000     -0.327272713       269.781921       1.58078289    
  0.500000000       0.00000000     -0.409090906       269.781921       1.58078289    
  0.479746491      0.140866295     -0.409090906       269.781921       1.58078289    
  0.420626789      0.270320386     -0.327272713       787.482117       1.58078647    
  0.479746491      0.140866295     -0.327272713       787.482117       1.58078647    
  0.479746491      0.140866295     -0.409090906       787.482117       1.58078647    
  0.420626789      0.270320386     -0.409090906       787.482117       1.58078647    
  0.327430397      0.377874792     -0.327272713       1241.38733       1.58078575    
  0.420626789      0.270320386     -0.327272713       1241.38733       1.58078575    
  0.420626789      0.270320386     -0.409090906       1241.38733       1.58078575    
  0.327430397      0.377874792     -0.409090906       1241.38733       1.58078575    
  0.207707494      0.454816014     -0.327272713       1594.72119       1.58078539    
  0.327430397      0.377874792     -0.327272713       1594.72119       1.58078539    
  0.327430397      0.377874792     -0.409090906       1594.72119       1.58078539    
  0.207707494      0.454816014     -0.409090906       1594.72119       1.58078539    
   7.11574182E-02  0.494910687     -0.327272713       1818.86377       1.58078599    
  0.207707494      0.454816014     -0.327272713       1818.86377       1.58078599    
  0.207707494      0.454816014     -0.409090906       1818.86377       1.58078599    
   7.11574182E-02  0.494910687     -0.409090906       1818.86377       1.58078599    
  -7.11574182E-02  0.494910687     -0.327272713       1895.65149       1.58078635    
   7.11574182E-02  0.494910687     -0.327272713       1895.65149       1.58078635    
   7.11574182E-02  0.494910687     -0.409090906       1895.65149       1.58078635    
  -7.11574182E-02  0.494910687     -0.409090906       1895.65149       1.58078635    
 -0.207707494      0.454816014     -0.327272713       1818.86450       1.58078599    
  -7.11574182E-02  0.494910687     -0.327272713       1818.86450       1.58078599    
  -7.11574182E-02  0.494910687     -0.409090906       1818.86450       1.58078599    
 -0.207707494      0.454816014     -0.409090906       1818.86450       1.58078599    
 -0.327430397      0.377874792     -0.327272713       1594.72034       1.58078504    
 -0.207707494      0.454816014     -0.327272713       1594.72034       1.58078504    
 -0.207707494      0.454816014     -0.409090906       1594.72034       1.58078504    
 -0.327430397      0.377874792     -0.409090906       1594.72034       1.58078504    
 -0.420626789      0.270320386     -0.327272713       1241.38757       1.58078587    
 -0.327430397      0.377874792     -0.327272713       1241.38757       1.58078587    
 -0.327430397      0.377874792     -0.409090906       1241.38757       1.58078587    
 -0.420626789      0.270320386     -0.409090906       1241.38757       1.58078587    
 -0.479746491      0.140866295     -0.327272713       787.483154       1.58078659    
 -0.420626789      0.270320386     -0.327272713       787.483154       1.58078659    
 -0.420626789      0.270320386     -0.409090906       787.483154       1.58078659    
 -0.479746491      0.140866295     -0.409090906       787.483154       1.58078659    
 -0.500000000       2.84000009E-16 -0.327272713       269.782166       1.58078384    
 -0.479746491      0.140866295     -0.327272713       269.782166       1.58078384    
 -0.479746491      0.140866295     -0.409090906       269.782166       1.58078384    
 -0.500000000       2.84000009E-16 -0.409090906       269.782166       1.58078384    
  0.479746491      0.140866295     -0.409090906       265.311859       1.58088374    
  0.500000000       0.00000000     -0.409090906       265.311859       1.58088374    
  0.500000000       0.00000000     -0.490909100       265.311859       1.58088374    
  0.479746491      0.140866295     -0.490909100       265.311859       1.58088374    
  0.420626789      0.270320386     -0.409090906       774.440186       1.58088577    
  0.479746491      0.140866295     -0.409090906       774.440186       1.58088577    
  0.479746491      0.140866295     -0.490909100       774.440186       1.58088577    
  0.420626789      0.270320386     -0.490909100       774.440186       1.58088577    
  0.327430397      0.377874792     -0.409090906       1220.83179       1.58088541    
  0.420626789      0.270320386     -0.409090906       1220.83179       1.58088541    
  0.420626789      0.270320386     -0.490909100       1220.83179       1.58088541    
  0.327430397      0.377874792     -0.490909100       1220.83179       1.58088541    
  0.207707494      0.454816014     -0.409090906       1568.31433       1.58088541    
  0.327430397      0.377874792     -0.409090906       1568.31433       1.58088541    
  0.327430397      0.377874792     -0.490909100       1568.31433       1.58088541    
  0.207707494      0.454816014     -0.490909100       1568.31433       1.58088541    
   7.11574182E-02  0.494910687     -0.409090906       1788.74243       1.58088541    
  0.207707494      0.454816014     -0.409090906       1788.74243       1.58088541    
  0.207707494      0.454816014     -0.490909100       1788.74243       1.58088541    
   7.11574182E-02  0.494910687     -0.490909100       1788.74243       1.58088541    
  -7.11574182E-02  0.494910687     -0.409090906       1864.25891       1.58088553    
   7.11574182E-02  0.494910687     -0.409090906       1864.25891       1.58088553    
   7.11574182E-02  0.494910687     -0.490909100       1864.25891       1.58088553    
  -7.11574182E-02  0.494910687     -0.490909100       1864.25891       1.58088553    
 -0.207707494      0.454816014     -0.409090906       1788.74219       1.58088541    
  -7.11574182E-02  0.494910687     -0.409090906       1788.74219       1.58088541    
  -7.11574182E-02  0.494910687     -0.490909100       1788.74219       1.58088541    
 -0.207707494      0.454816014     -0.490909100       1788.74219       1.58088541    
 -0.327430397      0.377874792     -0.409090906       1568.31641       1.58088470    
 -0.207707494      0.454816014     -0.409090906       1568.31641       1.58088470    
 -0.207707494      0.454816014     -0.490909100       1568.31641       1.58088470    
 -0.327430397      0.377874792     -0.490909100       1568.31641       1.58088470    
 -0.420626789      0.270320386     -0.409090906       1220.83154       1.58088481    
 -0.327430397      0.377874792     -0.409090906       1220.83154       1.58088481    
 -0.327430397      0.377874792     -0.490909100       1220.83154       1.58088481    
 -0.420626789      0.270320386     -0.490909100       1220.83154       1.58088481    
 -0.479746491      0.140866295     -0.409090906       774.439148       1.58088577    
 -0.420626789      0.270320386     -0.409090906       774.439148       1.58088577    
 -0.420626789      0.270320386     -0.490909100       774.439148       1.58088577    
 -0.479746491      0.140866295     -0.490909100       774.439148       1.58088577    
 -0.500000000       2.84000009E-16 -0.409090906       265.311584       1.58088422    
 -0.479746491      0.140866295     -0.409090906       265.311584       1.58088422    
 -0.479746491      0.140866295     -0.490909100       265.311584       1.58088422    
 -0.500000000       2.84000009E-16 -0.490909100       265.311584       1.58088422    
  0.479746491      0.140866295     -0.490909100       259.835571       1.58100867    
  0.500000000       0.00000000     -0.490909100       259.835571       1.58100867    
  0.500000000       0.00000000     -0.572727323       259.835571       1.58100867    
  0.479746491      0.140866295     -0.572727323       259.835571       1.58100867    
  0.420626789      0.270320386     -0.490909100       758.453186       1.58100784    
  0.479746491      0.140866295     -0.490909100       758.453186       1.58100784    
  0.479746491      0.140866295     -0.572727323       758.453186       1.58100784    
  0.420626789      0.270320386     -0.572727323       758.453186       1.58100784    
  0.327430397      0.377874792     -0.490909100       1195.62500       1.58100748    
  0.420626789      0.270320386     -0.490909100       1195.62500       1.58100748    
  0.420626789      0.270320386     -0.572727323       1195.62500       1.58100748    
  0.327430397      0.377874792     -0.572727323       1195.62500       1.58100748    
  0.207707494      0.454816014     -0.490909100       1535.93701       1.58100760    
  0.327430397      0.377874792     -0.490909100       1535.93701       1.58100760    
  0.327430397      0.377874792     -0.572727323       1535.93701       1.58100760    
  0.207707494      0.454816014     -0.572727323       1535.93701       1.58100760    
   7.11574182E-02  0.494910687     -0.490909100       1751.81238       1.58100832    
  0.207707494      0.454816014     -0.490909100       1751.81238       1.58100832    
  0.207707494      0.454816014     -0.572727323       1751.81238       1.58100832    
   7.11574182E-02  0.494910687     -0.572727323       1751.81238       1.58100832    
  -7.11574182E-02  0.494910687     -0.490909100       1825.76929       1.58100796    
   7.11574182E-02  0.494910687     -0.490909100       1825.76929       1.58100796    
   7.11574182E-02  0.494910687     -0.572727323       1825.76929       1.58100796    
  -7.11574182E-02  0.494910687     -0.572727323       1825.76929       1.58100796    
 -0.207707494      0.454816014     -0.490909100       1751.81189       1.58100832    
  -7.11574182E-02  0.494910687     -0.490909100       1751.81189       1.58100832    
  -7.11574182E-02  0.494910687     -0.572727323       1751.81189       1.58100832    
 -0.207707494      0.454816014     -0.572727323       1751.81189       1.58100832    
 -0.327430397      0.377874792     -0.490909100       1535.93726       1.58100796    
 -0.207707494      0.454816014     -0.490909100       1535.93726       1.58100796    
 -0.207707494      0.454816014     -0.572727323       1535.93726       1.58100796    
 -0.327430397      0.377874792     -0.572727323       1535.93726       1.58100796    
 -0.420626789      0.270320386     -0.490909100       1195.62500       1.58100712    
 -0.327430397      0.377874792     -0.490909100       1195.62500       1.58100712    
 -0.327430397      0.377874792     -0.572727323       1195.62500       1.58100712    
 -0.420626789      0.270320386     -0.572727323       1195.62500       1.58100712    
 -0.479746491      0.140866295     -0.490909100       758.453979       1.58100700    
 -0.420626789      0.270320386     -0.490909100       758.453979       1.58100700    
 -0.420626789      0.270320386     -0.572727323       758.453979       1.58100700    
 -0.479746491      0.140866295     -0.572727323       758.453979       1.58100700    
 -0.500000000       2.84000009E-16 -0.490909100       259.835327       1.58100820    
 -0.479746491      0.140866295     -0.490909100       259.835327       1.58100820    
 -0.479746491      0.140866295     -0.572727323       259.835327       1.58100820    
 -0.500000000       2.84000009E-16 -0.572727323       259.835327       1.58100820    
  0.479746491      0.140866295     -0.572727323       252.929733       1.58115935    
  0.500000000       0.00000000     -0.572727323       252.929733       1.58115935    
  0.500000000       0.00000000     -0.654545426       252.929733       1.58115935    
  0.479746491      0.140866295     -0.654545426       252.929733       1.58115935    
  0.420626789      0.270320386     -0.572727323       738.296692       1.58116531    
  0.479746491      0.140866295     -0.572727323       738.296692       1.58116531    
  0.479746491      0.140866295     -0.654545426       738.296692       1.58116531    
  0.420626789      0.270320386     -0.654545426       738.296692       1.58116531    
  0.327430397      0.377874792     -0.572727323       1163.85156       1.58116412    
  0.420626789      0.270320386     -0.572727323       1163.85156       1.58116412    
  0.420626789      0.270320386     -0.654545426       1163.85156       1.58116412    
  0.327430397      0.377874792     -0.654545426       1163.85156       1.58116412    
  0.207707494      0.454816014     -0.572727323       1495.11853       1.58116448    
  0.327430397      0.377874792     -0.572727323       1495.11853       1.58116448    
  0.327430397      0.377874792     -0.654545426       1495.11853       1.58116448    
  0.207707494      0.454816014     -0.654545426       1495.11853       1.58116448    
   7.11574182E-02  0.494910687     -0.572727323       1705.25830       1.58116484    
  0.207707494      0.454816014     -0.572727323       1705.25830       1.58116484    
  0.207707494      0.454816014     -0.654545426       1705.25830       1.58116484    
   7.11574182E-02  0.494910687     -0.654545426       1705.25830       1.58116484    
  -7.11574182E-02  0.494910687     -0.572727323       1777.24927       1.58116460    
   7.11574182E-02  0.494910687     -0.572727323       1777.24927       1.58116460    
   7.11574182E-02  0.494910687     -0.654545426       1777.24927       1.58116460    
  -7.11574182E-02  0.494910687     -0.654545426       1777.24927       1.58116460    
 -0.207707494      0.454816014     -0.572727323       1705.25903       1.58116484    
  -7.11574182E-02  0.494910687     -0.572727323       1705.25903       1.58116484    
  -7.11574182E-02  0.494910687     -0.654545426       1705.25903       1.58116484    
 -0.207707494      0.454816014     -0.654545426       1705.25903       1.58116484    
 -0.327430397      0.377874792     -0.572727323       1495.11865       1.58116472    
 -0.207707494      0.454816014     -0.572727323       1495.11865       1.58116472    
 -0.207707494      0.454816014     -0.654545426       1495.11865       1.58116472    
 -0.327430397      0.377874792     -0.654545426       1495.11865       1.58116472    
 -0.420626789      0.270320386     -0.572727323       1163.85242       1.58116424    
 -0.327430397      0.377874792     -0.572727323       1163.85242       1.58116424    
 -0.327430397      0.377874792     -0.654545426       1163.85242       1.58116424    
 -0.420626789      0.270320386     -0.654545426       1163.85242       1.58116424    
 -0.479746491      0.140866295     -0.572727323       738.295654       1.58116472    
 -0.420626789      0.270320386     -0.572727323       738.295654       1.58116472    
 -0.420626789      0.270320386     -0.654545426       738.295654       1.58116472    