 VARIABLES="X" "Y" "Z" "abs(p) (Pa)" "angle(p) (rad)"
ZONE N=    528,E =     462, F=FEPOINT, ET=QUADRILATERAL
  0.479746491      0.140866295       0.00000000       9952.64355      -1.37202036    
  0.500000000       0.00000000       0.00000000       9952.64355      -1.37202036    
  0.500000000       0.00000000      -8.18181783E-02   9952.64355      -1.37202036    
  0.479746491      0.140866295      -8.18181783E-02   9952.64355      -1.37202036    
  0.420626789      0.270320386       0.00000000       6923.60400      -1.60442340    
  0.479746491      0.140866295       0.00000000       6923.60400      -1.60442340    
  0.479746491      0.140866295      -8.18181783E-02   6923.60400      -1.60442340    
  0.420626789      0.270320386      -8.18181783E-02   6923.60400      -1.60442340    
  0.327430397      0.377874792       0.00000000       3599.21460      -2.40111637    
  0.420626789      0.270320386       0.00000000       3599.21460      -2.40111637    
  0.420626789      0.270320386      -8.18181783E-02   3599.21460      -2.40111637    
  0.327430397      0.377874792      -8.18181783E-02   3599.21460      -2.40111637    
  0.207707494      0.454816014       0.00000000       3488.22632       2.70594096    
  0.327430397      0.377874792       0.00000000       3488.22632       2.70594096    
  0.327430397      0.377874792      -8.18181783E-02   3488.22632       2.70594096    
  0.207707494      0.454816014      -8.18181783E-02   3488.22632       2.70594096    
   7.11574182E-02  0.494910687       0.00000000       2996.83057       2.13031602    
  0.207707494      0.454816014       0.00000000       2996.83057       2.13031602    
  0.207707494      0.454816014      -8.18181783E-02   2996.83057       2.13031602    
   7.11574182E-02  0.494910687      -8.18181783E-02   2996.83057       2.13031602    
  -7.11574182E-02  0.494910687       0.00000000       407.146271       1.58968282    
   7.11574182E-02  0.494910687       0.00000000       407.146271       1.58968282    
   7.11574182E-02  0.494910687      -8.18181783E-02   407.146271       1.58968282    
  -7.11574182E-02  0.494910687      -8.18181783E-02   407.146271       1.58968282    
 -0.207707494      0.454816014       0.00000000       2894.09644      -1.72435772    
  -7.11574182E-02  0.494910687       0.00000000       2894.09644      -1.72435772    
  -7.11574182E-02  0.494910687      -8.18181783E-02   2894.09644      -1.72435772    
 -0.207707494      0.454816014      -8.18181783E-02   2894.09644      -1.72435772    
 -0.327430397      0.377874792       0.00000000       5521.59131      -2.11007905    
 -0.207707494      0.454816014       0.00000000       5521.59131      -2.11007905    
 -0.207707494      0.454816014      -8.18181783E-02   5521.59131      -2.11007905    
 -0.327430397      0.377874792      -8.18181783E-02   5521.59131      -2.11007905    
 -0.420626789      0.270320386       0.00000000       7195.02686      -2.46921062    
 -0.327430397      0.377874792       0.00000000       7195.02686      -2.46921062    
 -0.327430397      0.377874792      -8.18181783E-02   7195.02686      -2.46921062    
 -0.420626789      0.270320386      -8.18181783E-02   7195.02686      -2.46921062    
 -0.479746491      0.140866295       0.00000000       8213.61914      -2.75141597    
 -0.420626789      0.270320386       0.00000000       8213.61914      -2.75141597    
 -0.420626789      0.270320386      -8.18181783E-02   8213.61914      -2.75141597    
 -0.479746491      0.140866295      -8.18181783E-02   8213.61914      -2.75141597    
 -0.500000000       2.84000009E-16   0.00000000       8737.22656      -2.90444779    
 -0.479746491      0.140866295       0.00000000       8737.22656      -2.90444779    
 -0.479746491      0.140866295      -8.18181783E-02   8737.22656      -2.90444779    
 -0.500000000       2.84000009E-16  -8.18181783E-02   8737.22656      -2.90444779    
  0.479746491      0.140866295      -8.18181783E-02   6494.03369      -1.31272924    
  0.500000000       0.00000000      -8.18181783E-02   6494.03369      -1.31272924    
  0.500000000       0.00000000     -0.163636401       6494.03369      -1.31272924    
  0.479746491      0.140866295     -0.163636401       6494.03369      -1.31272924    
  0.420626789      0.270320386      -8.18181783E-02   4346.33203      -1.53448164    
  0.479746491      0.140866295      -8.18181783E-02   4346.33203      -1.53448164    
  0.479746491      0.140866295     -0.163636401       4346.33203      -1.53448164    
  0.420626789      0.270320386     -0.163636401       4346.33203      -1.53448164    
  0.327430397      0.377874792      -8.18181783E-02   1963.87109      -2.43358278    
  0.420626789      0.270320386      -8.18181783E-02   1963.87109      -2.43358278    
  0.420626789      0.270320386     -0.163636401       1963.87109      -2.43358278    
  0.327430397      0.377874792     -0.163636401       1963.87109      -2.43358278    
  0.207707494      0.454816014      -8.18181783E-02   2291.59912       2.49182343    
  0.327430397      0.377874792      -8.18181783E-02   2291.59912       2.49182343    
  0.327430397      0.377874792     -0.163636401       2291.59912       2.49182343    
  0.207707494      0.454816014     -0.163636401       2291.59912       2.49182343    
   7.11574182E-02  0.494910687      -8.18181783E-02   2236.64111       1.90566492    
  0.207707494      0.454816014      -8.18181783E-02   2236.64111       1.90566492    
  0.207707494      0.454816014     -0.163636401       2236.64111       1.90566492    
   7.11574182E-02  0.494910687     -0.163636401       2236.64111       1.90566492    
  -7.11574182E-02  0.494910687      -8.18181783E-02   740.302551       1.06868684    
   7.11574182E-02  0.494910687      -8.18181783E-02   740.302551       1.06868684    
   7.11574182E-02  0.494910687     -0.163636401       740.302551       1.06868684    
  -7.11574182E-02  0.494910687     -0.163636401       740.302551       1.06868684    
 -0.207707494      0.454816014      -8.18181783E-02   1585.82678      -1.53362525    
  -7.11574182E-02  0.494910687      -8.18181783E-02   1585.82678      -1.53362525    
  -7.11574182E-02  0.494910687     -0.163636401       1585.82678      -1.53362525    
 -0.207707494      0.454816014     -0.163636401       1585.82678      -1.53362525    
 -0.327430397      0.377874792      -8.18181783E-02   3265.30688      -2.07535768    
 -0.207707494      0.454816014      -8.18181783E-02   3265.30688      -2.07535768    
 -0.207707494      0.454816014     -0.163636401       3265.30688      -2.07535768    
 -0.327430397      0.377874792     -0.163636401       3265.30688      -2.07535768    
 -0.420626789      0.270320386      -8.18181783E-02   4387.18994      -2.48803735    
 -0.327430397      0.377874792      -8.18181783E-02   4387.18994      -2.48803735    
 -0.327430397      0.377874792     -0.163636401       4387.18994      -2.48803735    
 -0.420626789      0.270320386     -0.163636401       4387.18994      -2.48803735    
 -0.479746491      0.140866295      -8.18181783E-02   5117.48486      -2.79735851    
 -0.420626789      0.270320386      -8.18181783E-02   5117.48486      -2.79735851    
 -0.420626789      0.270320386     -0.163636401       5117.48486      -2.79735851    
 -0.479746491      0.140866295     -0.163636401       5117.48486      -2.79735851    
 -0.500000000       2.84000009E-16  -8.18181783E-02   5510.98242      -2.96121812    
 -0.479746491      0.140866295      -8.18181783E-02   5510.98242      -2.96121812    
 -0.479746491      0.140866295     -0.163636401       5510.98242      -2.96121812    
 -0.500000000       2.84000009E-16 -0.163636401       5510.98242      -2.96121812    
  0.479746491      0.140866295     -0.163636401       4309.24512      -1.27784193    
  0.500000000       0.00000000     -0.163636401       4309.24512      -1.27784193    
  0.500000000       0.00000000     -0.245454505       4309.24512      -1.27784193    
  0.479746491      0.140866295     -0.245454505       4309.24512      -1.27784193    
  0.420626789      0.270320386     -0.163636401       2820.05249      -1.49030077    
  0.479746491      0.140866295     -0.163636401       2820.05249      -1.49030077    
  0.479746491      0.140866295     -0.245454505       2820.05249      -1.49030077    
  0.420626789      0.270320386     -0.245454505       2820.05249      -1.49030077    
  0.327430397      0.377874792     -0.163636401       1150.97998      -2.45696568    
  0.420626789      0.270320386     -0.163636401       1150.97998      -2.45696568    
  0.420626789      0.270320386     -0.245454505       1150.97998      -2.45696568    
  0.327430397      0.377874792     -0.245454505       1150.97998      -2.45696568    
  0.207707494      0.454816014     -0.163636401       1552.65320       2.37100410    
  0.327430397      0.377874792     -0.163636401       1552.65320       2.37100410    
  0.327430397      0.377874792     -0.245454505       1552.65320       2.37100410    
  0.207707494      0.454816014     -0.245454505       1552.65320       2.37100410    
   7.11574182E-02  0.494910687     -0.163636401       1616.86133       1.80165076    
  0.207707494      0.454816014     -0.163636401       1616.86133       1.80165076    
  0.207707494      0.454816014     -0.245454505       1616.86133       1.80165076    
   7.11574182E-02  0.494910687     -0.245454505       1616.86133       1.80165076    
  -7.11574182E-02  0.494910687     -0.163636401       689.077454      0.997129083    
   7.11574182E-02  0.494910687     -0.163636401       689.077454      0.997129083    
   7.11574182E-02  0.494910687     -0.245454505       689.077454      0.997129083    
  -7.11574182E-02  0.494910687     -0.245454505       689.077454      0.997129083    
 -0.207707494      0.454816014     -0.163636401       954.192566      -1.38888550    
  -7.11574182E-02  0.494910687     -0.163636401       954.192566      -1.38888550    
  -7.11574182E-02  0.494910687     -0.245454505       954.192566      -1.38888550    
 -0.207707494      0.454816014     -0.245454505       954.192566      -1.38888550    
 -0.327430397      0.377874792     -0.163636401       2031.62012      -2.05170488    
 -0.207707494      0.454816014     -0.163636401       2031.62012      -2.05170488    
 -0.207707494      0.454816014     -0.245454505       2031.62012      -2.05170488    
 -0.327430397      0.377874792     -0.245454505       2031.62012      -2.05170488    
 -0.420626789      0.270320386     -0.163636401       2786.52612      -2.50012565    
 -0.327430397      0.377874792     -0.163636401       2786.52612      -2.50012565    
 -0.327430397      0.377874792     -0.245454505       2786.52612      -2.50012565    
 -0.420626789      0.270320386     -0.245454505       2786.52612      -2.50012565    
 -0.479746491      0.140866295     -0.163636401       3299.99707      -2.82584596    
 -0.420626789      0.270320386     -0.163636401       3299.99707      -2.82584596    
 -0.420626789      0.270320386     -0.245454505       3299.99707      -2.82584596    
 -0.479746491      0.140866295     -0.245454505       3299.99707      -2.82584596    
 -0.500000000       2.84000009E-16 -0.163636401       3583.75977      -2.99568462    
 -0.479746491      0.140866295     -0.163636401       3583.75977      -2.99568462    
 -0.479746491      0.140866295     -0.245454505       3583.75977      -2.99568462    
 -0.500000000       2.84000009E-16 -0.245454505       3583.75977      -2.99568462    
  0.479746491      0.140866295     -0.245454505       2867.46509      -1.24438012    
  0.500000000       0.00000000     -0.245454505       2867.46509      -1.24438012    
  0.500000000       0.00000000     -0.327272713       2867.46509      -1.24438012    
  0.479746491      0.140866295     -0.327272713       2867.46509      -1.24438012    
  0.420626789      0.270320386     -0.245454505       1837.72192      -1.44576311    
  0.479746491      0.140866295     -0.245454505       1837.72192      -1.44576311    
  0.479746491      0.140866295     -0.327272713       1837.72192      -1.44576311    
  0.420626789      0.270320386     -0.327272713       1837.72192      -1.44576311    
  0.327430397      0.377874792     -0.245454505       668.593567      -2.48317671    
  0.420626789      0.270320386     -0.245454505       668.593567      -2.48317671    
  0.420626789      0.270320386     -0.327272713       668.593567      -2.48317671    
  0.327430397      0.377874792     -0.327272713       668.593567      -2.48317671    
  0.207707494      0.454816014     -0.245454505       1063.51404       2.26228595    
  0.327430397      0.377874792     -0.245454505       1063.51404       2.26228595    
  0.327430397      0.377874792     -0.327272713       1063.51404       2.26228595    
  0.207707494      0.454816014     -0.327272713       1063.51404       2.26228595    
   7.11574182E-02  0.494910687     -0.245454505       1166.05725       1.71833003    
  0.207707494      0.454816014     -0.245454505       1166.05725       1.71833003    
  0.207707494      0.454816014     -0.327272713       1166.05725       1.71833003    
   7.11574182E-02  0.494910687     -0.327272713       1166.05725       1.71833003    
  -7.11574182E-02  0.494910687     -0.245454505       583.355347      0.959548891    
   7.11574182E-02  0.494910687     -0.245454505       583.355347      0.959548891    
   7.11574182E-02  0.494910687     -0.327272713       583.355347      0.959548891    
  -7.11574182E-02  0.494910687     -0.327272713       583.355347      0.959548891    
 -0.207707494      0.454816014     -0.245454505       586.412476      -1.22502291    
  -7.11574182E-02  0.494910687     -0.245454505       586.412476      -1.22502291    
  -7.11574182E-02  0.494910687     -0.327272713       586.412476      -1.22502291    
 -0.207707494      0.454816014     -0.327272713       586.412476      -1.22502291    
 -0.327430397      0.377874792     -0.245454505       1264.70117      -2.02589297    
 -0.207707494      0.454816014     -0.245454505       1264.70117      -2.02589297    
 -0.207707494      0.454816014     -0.327272713       1264.70117      -2.02589297    
 -0.327430397      0.377874792     -0.327272713       1264.70117      -2.02589297    
 -0.420626789      0.270320386     -0.245454505       1772.28857      -2.51231170    
 -0.327430397      0.377874792     -0.245454505       1772.28857      -2.51231170    
 -0.327430397      0.377874792     -0.327272713       1772.28857      -2.51231170    
 -0.420626789      0.270320386     -0.327272713       1772.28857      -2.51231170    
 -0.479746491      0.140866295     -0.245454505       2133.21582      -2.85411859    
 -0.420626789      0.270320386     -0.245454505       2133.21582      -2.85411859    
 -0.420626789      0.270320386     -0.327272713       2133.21582      -2.85411859    
 -0.479746491      0.140866295     -0.327272713       2133.21582      -2.85411859    
 -0.500000000       2.84000009E-16 -0.245454505       2337.16992      -3.02939510    
 -0.479746491      0.140866295     -0.245454505       2337.16992      -3.02939510    
 -0.479746491      0.140866295     -0.327272713       2337.16992      -3.02939510    
 -0.500000000       2.84000009E-16 -0.327272713       2337.16992      -3.02939510    
  0.479746491      0.140866295     -0.327272713       1909.47668      -1.20741498    
  0.500000000       0.00000000     -0.327272713       1909.47668      -1.20741498    
  0.500000000       0.00000000     -0.409090906       1909.47668      -1.20741498    
  0.479746491      0.140866295     -0.409090906       1909.47668      -1.20741498    
  0.420626789      0.270320386     -0.327272713       1197.22839      -1.39421761    
  0.479746491      0.140866295     -0.327272713       1197.22839      -1.39421761    
  0.479746491      0.140866295     -0.409090906       1197.22839      -1.39421761    
  0.420626789      0.270320386     -0.409090906       1197.22839      -1.39421761    
  0.327430397      0.377874792     -0.327272713       374.147156      -2.51859117    
  0.420626789      0.270320386     -0.327272713       374.147156      -2.51859117    
  0.420626789      0.270320386     -0.409090906       374.147156      -2.51859117    
  0.327430397      0.377874792     -0.409090906       374.147156      -2.51859117    
  0.207707494      0.454816014     -0.327272713       736.777771       2.15224409    
  0.327430397      0.377874792     -0.327272713       736.777771       2.15224409    
  0.327430397      0.377874792     -0.409090906       736.777771       2.15224409    
  0.207707494      0.454816014     -0.409090906       736.777771       2.15224409    
   7.11574182E-02  0.494910687     -0.327272713       844.892334       1.64188075    
  0.207707494      0.454816014     -0.327272713       844.892334       1.64188075    
  0.207707494      0.454816014     -0.409090906       844.892334       1.64188075    
   7.11574182E-02  0.494910687     -0.409090906       844.892334       1.64188075    
  -7.11574182E-02  0.494910687     -0.327272713       478.184174      0.934136033    
   7.11574182E-02  0.494910687     -0.327272713       478.184174      0.934136033    
   7.11574182E-02  0.494910687     -0.409090906       478.184174      0.934136033    
  -7.11574182E-02  0.494910687     -0.409090906       478.184174      0.934136033    
 -0.207707494      0.454816014     -0.327272713       368.052399      -1.01999390    
  -7.11574182E-02  0.494910687     -0.327272713       368.052399      -1.01999390    
  -7.11574182E-02  0.494910687     -0.409090906       368.052399      -1.01999390    
 -0.207707494      0.454816014     -0.409090906       368.052399      -1.01999390    
 -0.327430397      0.377874792     -0.327272713       777.630981      -1.99337399    
 -0.207707494      0.454816014     -0.327272713       777.630981      -1.99337399    
 -0.207707494      0.454816014     -0.409090906       777.630981      -1.99337399    
 -0.327430397      0.377874792     -0.409090906       777.630981      -1.99337399    
 -0.420626789      0.270320386     -0.327272713       1118.15955      -2.52677917    
 -0.327430397      0.377874792     -0.327272713       1118.15955      -2.52677917    
 -0.327430397      0.377874792     -0.409090906       1118.15955      -2.52677917    
 -0.420626789      0.270320386     -0.409090906       1118.15955      -2.52677917    
 -0.479746491      0.140866295     -0.327272713       1373.13074      -2.88664818    
 -0.420626789      0.270320386     -0.327272713       1373.13074      -2.88664818    
 -0.420626789      0.270320386     -0.409090906       1373.13074      -2.88664818    
 -0.479746491      0.140866295     -0.409090906       1373.13074      -2.88664818    
 -0.500000000       2.84000009E-16 -0.327272713       1520.36658      -3.06745315    
 -0.479746491      0.140866295     -0.327272713       1520.36658      -3.06745315    
 -0.479746491      0.140866295     -0.409090906       1520.36658      -3.06745315    
 -0.500000000       2.84000009E-16 -0.409090906       1520.36658      -3.06745315    
  0.479746491      0.140866295     -0.409090906       1273.77295      -1.16413879    
  0.500000000       0.00000000     -0.409090906       1273.77295      -1.16413879    
  0.500000000       0.00000000     -0.490909100       1273.77295      -1.16413879    
  0.479746491      0.140866295     -0.490909100       1273.77295      -1.16413879    
  0.420626789      0.270320386     -0.409090906       780.036438      -1.33104253    
  0.479746491      0.140866295     -0.409090906       780.036438      -1.33104253    
  0.479746491      0.140866295     -0.490909100       780.036438      -1.33104253    
  0.420626789      0.270320386     -0.490909100       780.036438      -1.33104253    
  0.327430397      0.377874792     -0.409090906       195.088531      -2.57463360    
  0.420626789      0.270320386     -0.409090906       195.088531      -2.57463360    
  0.420626789      0.270320386     -0.490909100       195.088531      -2.57463360    
  0.327430397      0.377874792     -0.490909100       195.088531      -2.57463360    
  0.207707494      0.454816014     -0.409090906       517.937012       2.03801370    
  0.327430397      0.377874792     -0.409090906       517.937012       2.03801370    
  0.327430397      0.377874792     -0.490909100       517.937012       2.03801370    
  0.207707494      0.454816014     -0.490909100       517.937012       2.03801370    
   7.11574182E-02  0.494910687     -0.409090906       617.224304       1.56914699    
  0.207707494      0.454816014     -0.409090906       617.224304       1.56914699    
  0.207707494      0.454816014     -0.490909100       617.224304       1.56914699    
   7.11574182E-02  0.494910687     -0.490909100       617.224304       1.56914699    
  -7.11574182E-02  0.494910687     -0.409090906       386.420197      0.915683687    
   7.11574182E-02  0.494910687     -0.409090906       386.420197      0.915683687    
   7.11574182E-02  0.494910687     -0.490909100       386.420197      0.915683687    
  -7.11574182E-02  0.494910687     -0.490909100       386.420197      0.915683687    
 -0.207707494      0.454816014     -0.409090906       241.257751     -0.766024709    
  -7.11574182E-02  0.494910687     -0.409090906       241.257751     -0.766024709    
  -7.11574182E-02  0.494910687     -0.490909100       241.257751     -0.766024709    
 -0.207707494      0.454816014     -0.490909100       241.257751     -0.766024709    
 -0.327430397      0.377874792     -0.409090906       468.362000      -1.94885290    
 -0.207707494      0.454816014     -0.409090906       468.362000      -1.94885290    
 -0.207707494      0.454816014     -0.490909100       468.362000      -1.94885290    
 -0.327430397      0.377874792     -0.490909100       468.362000      -1.94885290    
 -0.420626789      0.270320386     -0.409090906       696.067505      -2.54548836    
 -0.327430397      0.377874792     -0.409090906       696.067505      -2.54548836    
 -0.327430397      0.377874792     -0.490909100       696.067505      -2.54548836    
 -0.420626789      0.270320386     -0.490909100       696.067505      -2.54548836    
 -0.479746491      0.140866295     -0.409090906       877.686646      -2.92681646    
 -0.420626789      0.270320386     -0.409090906       877.686646      -2.92681646    
 -0.420626789      0.270320386     -0.490909100       877.686646      -2.92681646    
 -0.479746491      0.140866295     -0.490909100       877.686646      -2.92681646    
 -0.500000000       2.84000009E-16 -0.409090906       984.846680      -3.11335540    
 -0.479746491      0.140866295     -0.409090906       984.846680      -3.11335540    
 -0.479746491      0.140866295     -0.490909100       984.846680      -3.11335540    
 -0.500000000       2.84000009E-16 -0.490909100       984.846680      -3.11335540    
  0.479746491      0.140866295     -0.490909100       852.805237      -1.11070228    
  0.500000000       0.00000000     -0.490909100       852.805237      -1.11070228    
  0.500000000       0.00000000     -0.572727323       852.805237      -1.11070228    
  0.479746491      0.140866295     -0.572727323       852.805237      -1.11070228    
  0.420626789      0.270320386     -0.490909100       509.414429      -1.24920142    
  0.479746491      0.140866295     -0.490909100       509.414429      -1.24920142    
  0.479746491      0.140866295     -0.572727323       509.414429      -1.24920142    
  0.420626789      0.270320386     -0.572727323       509.414429      -1.24920142    
  0.327430397      0.377874792     -0.490909100       87.1144257      -2.68627930    
  0.420626789      0.270320386     -0.490909100       87.1144257      -2.68627930    
  0.420626789      0.270320386     -0.572727323       87.1144257      -2.68627930    
  0.327430397      0.377874792     -0.572727323       87.1144257      -2.68627930    
  0.207707494      0.454816014     -0.490909100       370.608856       1.91769969    
  0.327430397      0.377874792     -0.490909100       370.608856       1.91769969    
  0.327430397      0.377874792     -0.572727323       370.608856       1.91769969    
  0.207707494      0.454816014     -0.572727323       370.608856       1.91769969    
   7.11574182E-02  0.494910687     -0.490909100       455.999603       1.49822104    
  0.207707494      0.454816014     -0.490909100       455.999603       1.49822104    
  0.207707494      0.454816014     -0.572727323       455.999603       1.49822104    
   7.11574182E-02  0.494910687     -0.572727323       455.999603       1.49822104    
  -7.11574182E-02  0.494910687     -0.490909100       311.170990      0.902263522    
   7.11574182E-02  0.494910687     -0.490909100       311.170990      0.902263522    
   7.11574182E-02  0.494910687     -0.572727323       311.170990      0.902263522    
  -7.11574182E-02  0.494910687     -0.572727323       311.170990      0.902263522    
 -0.207707494      0.454816014     -0.490909100       170.334091     -0.471424580    
  -7.11574182E-02  0.494910687     -0.490909100       170.334091     -0.471424580    
  -7.11574182E-02  0.494910687     -0.572727323       170.334091     -0.471424580    
 -0.207707494      0.454816014     -0.572727323       170.334091     -0.471424580    
 -0.327430397      0.377874792     -0.490909100       272.077393      -1.88168526    
 -0.207707494      0.454816014     -0.490909100       272.077393      -1.88168526    
 -0.207707494      0.454816014     -0.572727323       272.077393      -1.88168526    
 -0.327430397      0.377874792     -0.572727323       272.077393      -1.88168526    
 -0.420626789      0.270320386     -0.490909100       423.300659      -2.57252455    
 -0.327430397      0.377874792     -0.490909100       423.300659      -2.57252455    
 -0.327430397      0.377874792     -0.572727323       423.300659      -2.57252455    
 -0.420626789      0.270320386     -0.572727323       423.300659      -2.57252455    
 -0.479746491      0.140866295     -0.490909100       554.536194      -2.98052692    
 -0.420626789      0.270320386     -0.490909100       554.536194      -2.98052692    
 -0.420626789      0.270320386     -0.572727323       554.536194      -2.98052692    
 -0.479746491      0.140866295     -0.572727323       554.536194      -2.98052692    
 -0.500000000       2.84000009E-16 -0.490909100       633.600647       3.11046004    
 -0.479746491      0.140866295     -0.490909100       633.600647       3.11046004    
 -0.479746491      0.140866295     -0.572727323       633.600647       3.11046004    
 -0.500000000       2.84000009E-16 -0.572727323       633.600647       3.11046004    
  0.479746491      0.140866295     -0.572727323       575.685974      -1.04439878    
  0.500000000       0.00000000     -0.572727323       575.685974      -1.04439878    
  0.500000000       0.00000000     -0.654545426       575.685974      -1.04439878    
  0.479746491      0.140866295     -0.654545426       575.685974      -1.04439878    
  0.420626789      0.270320386     -0.572727323       336.060699      -1.14309323    
  0.479746491      0.140866295     -0.572727323       336.060699      -1.14309323    
  0.479746491      0.140866295     -0.654545426       336.060699      -1.14309323    
  0.420626789      0.270320386     -0.654545426       336.060699      -1.14309323    
  0.327430397      0.377874792     -0.572727323       25.9098148      -3.08798170    
  0.420626789      0.270320386     -0.572727323       25.9098148      -3.08798170    
  0.420626789      0.270320386     -0.654545426       25.9098148      -3.08798170    
  0.327430397      0.377874792     -0.654545426       25.9098148      -3.08798170    
  0.207707494      0.454816014     -0.572727323       270.532867       1.79525709    
  0.327430397      0.377874792     -0.572727323       270.532867       1.79525709    
  0.327430397      0.377874792     -0.654545426       270.532867       1.79525709    
  0.207707494      0.454816014     -0.654545426       270.532867       1.79525709    
   7.11574182E-02  0.494910687     -0.572727323       340.959259       1.43107986    
  0.207707494      0.454816014     -0.572727323       340.959259       1.43107986    
  0.207707494      0.454816014     -0.654545426       340.959259       1.43107986    
   7.11574182E-02  0.494910687     -0.654545426       340.959259       1.43107986    
  -7.11574182E-02  0.494910687     -0.572727323       250.339371      0.894460559    
   7.11574182E-02  0.494910687     -0.572727323       250.339371      0.894460559    
   7.11574182E-02  0.494910687     -0.654545426       250.339371      0.894460559    
  -7.11574182E-02  0.494910687     -0.654545426       250.339371      0.894460559    
 -0.207707494      0.454816014     -0.572727323       131.545425     -0.176136509    
  -7.11574182E-02  0.494910687     -0.572727323       131.545425     -0.176136509    
  -7.11574182E-02  0.494910687     -0.654545426       131.545425     -0.176136509    
 -0.207707494      0.454816014     -0.654545426       131.545425     -0.176136509    
 -0.327430397      0.377874792     -0.572727323       149.059280      -1.77052951    
 -0.207707494      0.454816014     -0.572727323       149.059280      -1.77052951    
 -0.207707494      0.454816014     -0.654545426       149.059280      -1.77052951    
 -0.327430397      0.377874792     -0.654545426       149.059280      -1.77052951    
 -0.420626789      0.270320386     -0.572727323       248.148895      -2.61682510    
 -0.327430397      0.377874792     -0.572727323       248.148895      -2.61682510    
 -0.327430397      0.377874792     -0.654545426       248.148895      -2.61682510    
 -0.420626789      0.270320386     -0.654545426       248.148895      -2.61682510    
 -0.479746491      0.140866295     -0.572727323       345.019684      -3.05740452    
 -0.420626789      0.270320386     -0.572727323       345.019684      -3.05740452    
 -0.420626789      0.270320386     -0.654545426       345.019684      -3.05740452    