 VARIABLES="X" "Y" "Z" "abs(p) (Pa)" "angle(p) (rad)"
ZONE N=    528,E =     462, F=FEPOINT, ET=QUADRILATERAL
  0.479746491      0.140866295       0.00000000       2468.96826      -1.01664019    
  0.500000000       0.00000000       0.00000000       2468.96826      -1.01664019    
  0.500000000       0.00000000      -8.18181783E-02   2468.96826      -1.01664019    
  0.479746491      0.140866295      -8.18181783E-02   2468.96826      -1.01664019    
  0.420626789      0.270320386       0.00000000       2268.94702      -1.01663995    
  0.479746491      0.140866295       0.00000000       2268.94702      -1.01663995    
  0.479746491      0.140866295      -8.18181783E-02   2268.94702      -1.01663995    
  0.420626789      0.270320386      -8.18181783E-02   2268.94702      -1.01663995    
  0.327430397      0.377874792       0.00000000       1885.10901      -1.01664007    
  0.420626789      0.270320386       0.00000000       1885.10901      -1.01664007    
  0.420626789      0.270320386      -8.18181783E-02   1885.10901      -1.01664007    
  0.327430397      0.377874792      -8.18181783E-02   1885.10901      -1.01664007    
  0.207707494      0.454816014       0.00000000       1348.55090      -1.01663995    
  0.327430397      0.377874792       0.00000000       1348.55090      -1.01663995    
  0.327430397      0.377874792      -8.18181783E-02   1348.55090      -1.01663995    
  0.207707494      0.454816014      -8.18181783E-02   1348.55090      -1.01663995    
   7.11574182E-02  0.494910687       0.00000000       702.741394      -1.01663983    
  0.207707494      0.454816014       0.00000000       702.741394      -1.01663983    
  0.207707494      0.454816014      -8.18181783E-02   702.741394      -1.01663983    
   7.11574182E-02  0.494910687      -8.18181783E-02   702.741394      -1.01663983    
  -7.11574182E-02  0.494910687       0.00000000       5.96373902E-05   2.06035233    
   7.11574182E-02  0.494910687       0.00000000       5.96373902E-05   2.06035233    
   7.11574182E-02  0.494910687      -8.18181783E-02   5.96373902E-05   2.06035233    
  -7.11574182E-02  0.494910687      -8.18181783E-02   5.96373902E-05   2.06035233    
 -0.207707494      0.454816014       0.00000000       702.741333       2.12495279    
  -7.11574182E-02  0.494910687       0.00000000       702.741333       2.12495279    
  -7.11574182E-02  0.494910687      -8.18181783E-02   702.741333       2.12495279    
 -0.207707494      0.454816014      -8.18181783E-02   702.741333       2.12495279    
 -0.327430397      0.377874792       0.00000000       1348.55115       2.12495255    
 -0.207707494      0.454816014       0.00000000       1348.55115       2.12495255    
 -0.207707494      0.454816014      -8.18181783E-02   1348.55115       2.12495255    
 -0.327430397      0.377874792      -8.18181783E-02   1348.55115       2.12495255    
 -0.420626789      0.270320386       0.00000000       1885.10901       2.12495255    
 -0.327430397      0.377874792       0.00000000       1885.10901       2.12495255    
 -0.327430397      0.377874792      -8.18181783E-02   1885.10901       2.12495255    
 -0.420626789      0.270320386      -8.18181783E-02   1885.10901       2.12495255    
 -0.479746491      0.140866295       0.00000000       2268.94702       2.12495255    
 -0.420626789      0.270320386       0.00000000       2268.94702       2.12495255    
 -0.420626789      0.270320386      -8.18181783E-02   2268.94702       2.12495255    
 -0.479746491      0.140866295      -8.18181783E-02   2268.94702       2.12495255    
 -0.500000000       2.84000009E-16   0.00000000       2468.96826       2.12495255    
 -0.479746491      0.140866295       0.00000000       2468.96826       2.12495255    
 -0.479746491      0.140866295      -8.18181783E-02   2468.96826       2.12495255    
 -0.500000000       2.84000009E-16  -8.18181783E-02   2468.96826       2.12495255    
  0.479746491      0.140866295      -8.18181783E-02   2284.39819      -1.02444267    
  0.500000000       0.00000000      -8.18181783E-02   2284.39819      -1.02444267    
  0.500000000       0.00000000     -0.163636401       2284.39819      -1.02444267    
  0.479746491      0.140866295     -0.163636401       2284.39819      -1.02444267    
  0.420626789      0.270320386      -8.18181783E-02   2099.33008      -1.02444303    
  0.479746491      0.140866295      -8.18181783E-02   2099.33008      -1.02444303    
  0.479746491      0.140866295     -0.163636401       2099.33008      -1.02444303    
  0.420626789      0.270320386     -0.163636401       2099.33008      -1.02444303    
  0.327430397      0.377874792      -8.18181783E-02   1744.18530      -1.02444243    
  0.420626789      0.270320386      -8.18181783E-02   1744.18530      -1.02444243    
  0.420626789      0.270320386     -0.163636401       1744.18530      -1.02444243    
  0.327430397      0.377874792     -0.163636401       1744.18530      -1.02444243    
  0.207707494      0.454816014      -8.18181783E-02   1247.73889      -1.02444303    
  0.327430397      0.377874792      -8.18181783E-02   1247.73889      -1.02444303    
  0.327430397      0.377874792     -0.163636401       1247.73889      -1.02444303    
  0.207707494      0.454816014     -0.163636401       1247.73889      -1.02444303    
   7.11574182E-02  0.494910687      -8.18181783E-02   650.207458      -1.02444291    
  0.207707494      0.454816014      -8.18181783E-02   650.207458      -1.02444291    
  0.207707494      0.454816014     -0.163636401       650.207458      -1.02444291    
   7.11574182E-02  0.494910687     -0.163636401       650.207458      -1.02444291    
  -7.11574182E-02  0.494910687      -8.18181783E-02   2.78226944E-05   1.22496557    
   7.11574182E-02  0.494910687      -8.18181783E-02   2.78226944E-05   1.22496557    
   7.11574182E-02  0.494910687     -0.163636401       2.78226944E-05   1.22496557    
  -7.11574182E-02  0.494910687     -0.163636401       2.78226944E-05   1.22496557    
 -0.207707494      0.454816014      -8.18181783E-02   650.207458       2.11715007    
  -7.11574182E-02  0.494910687      -8.18181783E-02   650.207458       2.11715007    
  -7.11574182E-02  0.494910687     -0.163636401       650.207458       2.11715007    
 -0.207707494      0.454816014     -0.163636401       650.207458       2.11715007    
 -0.327430397      0.377874792      -8.18181783E-02   1247.73914       2.11714959    
 -0.207707494      0.454816014      -8.18181783E-02   1247.73914       2.11714959    
 -0.207707494      0.454816014     -0.163636401       1247.73914       2.11714959    
 -0.327430397      0.377874792     -0.163636401       1247.73914       2.11714959    
 -0.420626789      0.270320386      -8.18181783E-02   1744.18579       2.11715007    
 -0.327430397      0.377874792      -8.18181783E-02   1744.18579       2.11715007    
 -0.327430397      0.377874792     -0.163636401       1744.18579       2.11715007    
 -0.420626789      0.270320386     -0.163636401       1744.18579       2.11715007    
 -0.479746491      0.140866295      -8.18181783E-02   2099.33032       2.11714959    
 -0.420626789      0.270320386      -8.18181783E-02   2099.33032       2.11714959    
 -0.420626789      0.270320386     -0.163636401       2099.33032       2.11714959    
 -0.479746491      0.140866295     -0.163636401       2099.33032       2.11714959    
 -0.500000000       2.84000009E-16  -8.18181783E-02   2284.39819       2.11714959    
 -0.479746491      0.140866295      -8.18181783E-02   2284.39819       2.11714959    
 -0.479746491      0.140866295     -0.163636401       2284.39819       2.11714959    
 -0.500000000       2.84000009E-16 -0.163636401       2284.39819       2.11714959    
  0.479746491      0.140866295     -0.163636401       2132.05859      -1.03585732    
  0.500000000       0.00000000     -0.163636401       2132.05859      -1.03585732    
  0.500000000       0.00000000     -0.245454505       2132.05859      -1.03585732    
  0.479746491      0.140866295     -0.245454505       2132.05859      -1.03585732    
  0.420626789      0.270320386     -0.163636401       1959.33154      -1.03585684    
  0.479746491      0.140866295     -0.163636401       1959.33154      -1.03585684    
  0.479746491      0.140866295     -0.245454505       1959.33154      -1.03585684    
  0.420626789      0.270320386     -0.245454505       1959.33154      -1.03585684    
  0.327430397      0.377874792     -0.163636401       1627.87109      -1.03585696    
  0.420626789      0.270320386     -0.163636401       1627.87109      -1.03585696    
  0.420626789      0.270320386     -0.245454505       1627.87109      -1.03585696    
  0.327430397      0.377874792     -0.245454505       1627.87109      -1.03585696    
  0.207707494      0.454816014     -0.163636401       1164.53101      -1.03585720    
  0.327430397      0.377874792     -0.163636401       1164.53101      -1.03585720    
  0.327430397      0.377874792     -0.245454505       1164.53101      -1.03585720    
  0.207707494      0.454816014     -0.245454505       1164.53101      -1.03585720    
   7.11574182E-02  0.494910687     -0.163636401       606.847107      -1.03585708    
  0.207707494      0.454816014     -0.163636401       606.847107      -1.03585708    
  0.207707494      0.454816014     -0.245454505       606.847107      -1.03585708    
   7.11574182E-02  0.494910687     -0.245454505       606.847107      -1.03585708    
  -7.11574182E-02  0.494910687     -0.163636401       1.91735871E-05  -1.30830169    
   7.11574182E-02  0.494910687     -0.163636401       1.91735871E-05  -1.30830169    
   7.11574182E-02  0.494910687     -0.245454505       1.91735871E-05  -1.30830169    
  -7.11574182E-02  0.494910687     -0.245454505       1.91735871E-05  -1.30830169    
 -0.207707494      0.454816014     -0.163636401       606.846924       2.10573554    
  -7.11574182E-02  0.494910687     -0.163636401       606.846924       2.10573554    
  -7.11574182E-02  0.494910687     -0.245454505       606.846924       2.10573554    
 -0.207707494      0.454816014     -0.245454505       606.846924       2.10573554    
 -0.327430397      0.377874792     -0.163636401       1164.53101       2.10573530    
 -0.207707494      0.454816014     -0.163636401       1164.53101       2.10573530    
 -0.207707494      0.454816014     -0.245454505       1164.53101       2.10573530    
 -0.327430397      0.377874792     -0.245454505       1164.53101       2.10573530    
 -0.420626789      0.270320386     -0.163636401       1627.87134       2.10573554    
 -0.327430397      0.377874792     -0.163636401       1627.87134       2.10573554    
 -0.327430397      0.377874792     -0.245454505       1627.87134       2.10573554    
 -0.420626789      0.270320386     -0.245454505       1627.87134       2.10573554    
 -0.479746491      0.140866295     -0.163636401       1959.33191       2.10573578    
 -0.420626789      0.270320386     -0.163636401       1959.33191       2.10573578    
 -0.420626789      0.270320386     -0.245454505       1959.33191       2.10573578    
 -0.479746491      0.140866295     -0.245454505       1959.33191       2.10573578    
 -0.500000000       2.84000009E-16 -0.163636401       2132.05908       2.10573530    
 -0.479746491      0.140866295     -0.163636401       2132.05908       2.10573530    
 -0.479746491      0.140866295     -0.245454505       2132.05908       2.10573530    
 -0.500000000       2.84000009E-16 -0.245454505       2132.05908       2.10573530    
  0.479746491      0.140866295     -0.245454505       2004.60156      -1.04919136    
  0.500000000       0.00000000     -0.245454505       2004.60156      -1.04919136    
  0.500000000       0.00000000     -0.327272713       2004.60156      -1.04919136    
  0.479746491      0.140866295     -0.327272713       2004.60156      -1.04919136    
  0.420626789      0.270320386     -0.245454505       1842.20105      -1.04919124    
  0.479746491      0.140866295     -0.245454505       1842.20105      -1.04919124    
  0.479746491      0.140866295     -0.327272713       1842.20105      -1.04919124    
  0.420626789      0.270320386     -0.327272713       1842.20105      -1.04919124    
  0.327430397      0.377874792     -0.245454505       1530.55444      -1.04919112    
  0.420626789      0.270320386     -0.245454505       1530.55444      -1.04919112    
  0.420626789      0.270320386     -0.327272713       1530.55444      -1.04919112    
  0.327430397      0.377874792     -0.327272713       1530.55444      -1.04919112    
  0.207707494      0.454816014     -0.245454505       1094.91406      -1.04919147    
  0.327430397      0.377874792     -0.245454505       1094.91406      -1.04919147    
  0.327430397      0.377874792     -0.327272713       1094.91406      -1.04919147    
  0.207707494      0.454816014     -0.327272713       1094.91406      -1.04919147    
   7.11574182E-02  0.494910687     -0.245454505       570.569153      -1.04919100    
  0.207707494      0.454816014     -0.245454505       570.569153      -1.04919100    
  0.207707494      0.454816014     -0.327272713       570.569153      -1.04919100    
   7.11574182E-02  0.494910687     -0.327272713       570.569153      -1.04919100    
  -7.11574182E-02  0.494910687     -0.245454505       4.22619923E-05 -0.179025680    
   7.11574182E-02  0.494910687     -0.245454505       4.22619923E-05 -0.179025680    
   7.11574182E-02  0.494910687     -0.327272713       4.22619923E-05 -0.179025680    
  -7.11574182E-02  0.494910687     -0.327272713       4.22619923E-05 -0.179025680    
 -0.207707494      0.454816014     -0.245454505       570.568909       2.09240150    
  -7.11574182E-02  0.494910687     -0.245454505       570.568909       2.09240150    
  -7.11574182E-02  0.494910687     -0.327272713       570.568909       2.09240150    
 -0.207707494      0.454816014     -0.327272713       570.568909       2.09240150    
 -0.327430397      0.377874792     -0.245454505       1094.91394       2.09240150    
 -0.207707494      0.454816014     -0.245454505       1094.91394       2.09240150    
 -0.207707494      0.454816014     -0.327272713       1094.91394       2.09240150    
 -0.327430397      0.377874792     -0.327272713       1094.91394       2.09240150    
 -0.420626789      0.270320386     -0.245454505       1530.55505       2.09240150    
 -0.327430397      0.377874792     -0.245454505       1530.55505       2.09240150    
 -0.327430397      0.377874792     -0.327272713       1530.55505       2.09240150    
 -0.420626789      0.270320386     -0.327272713       1530.55505       2.09240150    
 -0.479746491      0.140866295     -0.245454505       1842.20105       2.09240103    
 -0.420626789      0.270320386     -0.245454505       1842.20105       2.09240103    
 -0.420626789      0.270320386     -0.327272713       1842.20105       2.09240103    
 -0.479746491      0.140866295     -0.327272713       1842.20105       2.09240103    
 -0.500000000       2.84000009E-16 -0.245454505       2004.60168       2.09240127    
 -0.479746491      0.140866295     -0.245454505       2004.60168       2.09240127    
 -0.479746491      0.140866295     -0.327272713       2004.60168       2.09240127    
 -0.500000000       2.84000009E-16 -0.327272713       2004.60168       2.09240127    
  0.479746491      0.140866295     -0.327272713       1895.76270      -1.06310916    
  0.500000000       0.00000000     -0.327272713       1895.76270      -1.06310916    
  0.500000000       0.00000000     -0.409090906       1895.76270      -1.06310916    
  0.479746491      0.140866295     -0.409090906       1895.76270      -1.06310916    
  0.420626789      0.270320386     -0.327272713       1742.17981      -1.06310892    
  0.479746491      0.140866295     -0.327272713       1742.17981      -1.06310892    
  0.479746491      0.140866295     -0.409090906       1742.17981      -1.06310892    
  0.420626789      0.270320386     -0.409090906       1742.17981      -1.06310892    
  0.327430397      0.377874792     -0.327272713       1447.45593      -1.06310916    
  0.420626789      0.270320386     -0.327272713       1447.45593      -1.06310916    
  0.420626789      0.270320386     -0.409090906       1447.45593      -1.06310916    
  0.327430397      0.377874792     -0.409090906       1447.45593      -1.06310916    
  0.207707494      0.454816014     -0.327272713       1035.46655      -1.06310892    
  0.327430397      0.377874792     -0.327272713       1035.46655      -1.06310892    
  0.327430397      0.377874792     -0.409090906       1035.46655      -1.06310892    
  0.207707494      0.454816014     -0.409090906       1035.46655      -1.06310892    
   7.11574182E-02  0.494910687     -0.327272713       539.590210      -1.06310868    
  0.207707494      0.454816014     -0.327272713       539.590210      -1.06310868    
  0.207707494      0.454816014     -0.409090906       539.590210      -1.06310868    
   7.11574182E-02  0.494910687     -0.409090906       539.590210      -1.06310868    
  -7.11574182E-02  0.494910687     -0.327272713       6.25216126E-05   1.58831441    
   7.11574182E-02  0.494910687     -0.327272713       6.25216126E-05   1.58831441    
   7.11574182E-02  0.494910687     -0.409090906       6.25216126E-05   1.58831441    
  -7.11574182E-02  0.494910687     -0.409090906       6.25216126E-05   1.58831441    
 -0.207707494      0.454816014     -0.327272713       539.590393       2.07848382    
  -7.11574182E-02  0.494910687     -0.327272713       539.590393       2.07848382    
  -7.11574182E-02  0.494910687     -0.409090906       539.590393       2.07848382    
 -0.207707494      0.454816014     -0.409090906       539.590393       2.07848382    
 -0.327430397      0.377874792     -0.327272713       1035.46667       2.07848358    
 -0.207707494      0.454816014     -0.327272713       1035.46667       2.07848358    
 -0.207707494      0.454816014     -0.409090906       1035.46667       2.07848358    
 -0.327430397      0.377874792     -0.409090906       1035.46667       2.07848358    
 -0.420626789      0.270320386     -0.327272713       1447.45630       2.07848334    
 -0.327430397      0.377874792     -0.327272713       1447.45630       2.07848334    
 -0.327430397      0.377874792     -0.409090906       1447.45630       2.07848334    
 -0.420626789      0.270320386     -0.409090906       1447.45630       2.07848334    
 -0.479746491      0.140866295     -0.327272713       1742.18005       2.07848358    
 -0.420626789      0.270320386     -0.327272713       1742.18005       2.07848358    
 -0.420626789      0.270320386     -0.409090906       1742.18005       2.07848358    
 -0.479746491      0.140866295     -0.409090906       1742.18005       2.07848358    
 -0.500000000       2.84000009E-16 -0.327272713       1895.76282       2.07848382    
 -0.479746491      0.140866295     -0.327272713       1895.76282       2.07848382    
 -0.479746491      0.140866295     -0.409090906       1895.76282       2.07848382    
 -0.500000000       2.84000009E-16 -0.409090906       1895.76282       2.07848382    
  0.479746491      0.140866295     -0.409090906       1800.71375      -1.07649326    
  0.500000000       0.00000000     -0.409090906       1800.71375      -1.07649326    
  0.500000000       0.00000000     -0.490909100       1800.71375      -1.07649326    
  0.479746491      0.140866295     -0.490909100       1800.71375      -1.07649326    
  0.420626789      0.270320386     -0.409090906       1654.83093      -1.07649314    
  0.479746491      0.140866295     -0.409090906       1654.83093      -1.07649314    
  0.479746491      0.140866295     -0.490909100       1654.83093      -1.07649314    
  0.420626789      0.270320386     -0.490909100       1654.83093      -1.07649314    
  0.327430397      0.377874792     -0.409090906       1374.88220      -1.07649302    
  0.420626789      0.270320386     -0.409090906       1374.88220      -1.07649302    
  0.420626789      0.270320386     -0.490909100       1374.88220      -1.07649302    
  0.327430397      0.377874792     -0.490909100       1374.88220      -1.07649302    
  0.207707494      0.454816014     -0.409090906       983.550049      -1.07649314    
  0.327430397      0.377874792     -0.409090906       983.550049      -1.07649314    
  0.327430397      0.377874792     -0.490909100       983.550049      -1.07649314    
  0.207707494      0.454816014     -0.490909100       983.550049      -1.07649314    
   7.11574182E-02  0.494910687     -0.409090906       512.536194      -1.07649291    
  0.207707494      0.454816014     -0.409090906       512.536194      -1.07649291    
  0.207707494      0.454816014     -0.490909100       512.536194      -1.07649291    
   7.11574182E-02  0.494910687     -0.490909100       512.536194      -1.07649291    
  -7.11574182E-02  0.494910687     -0.409090906       1.14891591E-04   1.90708780    
   7.11574182E-02  0.494910687     -0.409090906       1.14891591E-04   1.90708780    
   7.11574182E-02  0.494910687     -0.490909100       1.14891591E-04   1.90708780    
  -7.11574182E-02  0.494910687     -0.490909100       1.14891591E-04   1.90708780    
 -0.207707494      0.454816014     -0.409090906       512.536438       2.06509924    
  -7.11574182E-02  0.494910687     -0.409090906       512.536438       2.06509924    
  -7.11574182E-02  0.494910687     -0.490909100       512.536438       2.06509924    
 -0.207707494      0.454816014     -0.490909100       512.536438       2.06509924    
 -0.327430397      0.377874792     -0.409090906       983.550110       2.06509924    
 -0.207707494      0.454816014     -0.409090906       983.550110       2.06509924    
 -0.207707494      0.454816014     -0.490909100       983.550110       2.06509924    
 -0.327430397      0.377874792     -0.490909100       983.550110       2.06509924    
 -0.420626789      0.270320386     -0.409090906       1374.88196       2.06509948    
 -0.327430397      0.377874792     -0.409090906       1374.88196       2.06509948    
 -0.327430397      0.377874792     -0.490909100       1374.88196       2.06509948    
 -0.420626789      0.270320386     -0.490909100       1374.88196       2.06509948    
 -0.479746491      0.140866295     -0.409090906       1654.83093       2.06509924    
 -0.420626789      0.270320386     -0.409090906       1654.83093       2.06509924    
 -0.420626789      0.270320386     -0.490909100       1654.83093       2.06509924    
 -0.479746491      0.140866295     -0.490909100       1654.83093       2.06509924    
 -0.500000000       2.84000009E-16 -0.409090906       1800.71338       2.06509948    
 -0.479746491      0.140866295     -0.409090906       1800.71338       2.06509948    
 -0.479746491      0.140866295     -0.490909100       1800.71338       2.06509948    
 -0.500000000       2.84000009E-16 -0.490909100       1800.71338       2.06509948    
  0.479746491      0.140866295     -0.490909100       1714.61023      -1.08822024    
  0.500000000       0.00000000     -0.490909100       1714.61023      -1.08822024    
  0.500000000       0.00000000     -0.572727323       1714.61023      -1.08822024    
  0.479746491      0.140866295     -0.572727323       1714.61023      -1.08822024    
  0.420626789      0.270320386     -0.490909100       1575.70312      -1.08822036    
  0.479746491      0.140866295     -0.490909100       1575.70312      -1.08822036    
  0.479746491      0.140866295     -0.572727323       1575.70312      -1.08822036    
  0.420626789      0.270320386     -0.572727323       1575.70312      -1.08822036    
  0.327430397      0.377874792     -0.490909100       1309.14124      -1.08822036    
  0.420626789      0.270320386     -0.490909100       1309.14124      -1.08822036    
  0.420626789      0.270320386     -0.572727323       1309.14124      -1.08822036    
  0.327430397      0.377874792     -0.572727323       1309.14124      -1.08822036    
  0.207707494      0.454816014     -0.490909100       936.520752      -1.08822060    
  0.327430397      0.377874792     -0.490909100       936.520752      -1.08822060    
  0.327430397      0.377874792     -0.572727323       936.520752      -1.08822060    
  0.207707494      0.454816014     -0.572727323       936.520752      -1.08822060    
   7.11574182E-02  0.494910687     -0.490909100       488.028748      -1.08822012    
  0.207707494      0.454816014     -0.490909100       488.028748      -1.08822012    
  0.207707494      0.454816014     -0.572727323       488.028748      -1.08822012    
   7.11574182E-02  0.494910687     -0.572727323       488.028748      -1.08822012    
  -7.11574182E-02  0.494910687     -0.490909100       3.74859665E-05 -0.840438306    
   7.11574182E-02  0.494910687     -0.490909100       3.74859665E-05 -0.840438306    
   7.11574182E-02  0.494910687     -0.572727323       3.74859665E-05 -0.840438306    
  -7.11574182E-02  0.494910687     -0.572727323       3.74859665E-05 -0.840438306    
 -0.207707494      0.454816014     -0.490909100       488.028870       2.05337238    
  -7.11574182E-02  0.494910687     -0.490909100       488.028870       2.05337238    
  -7.11574182E-02  0.494910687     -0.572727323       488.028870       2.05337238    
 -0.207707494      0.454816014     -0.572727323       488.028870       2.05337238    
 -0.327430397      0.377874792     -0.490909100       936.520691       2.05337214    
 -0.207707494      0.454816014     -0.490909100       936.520691       2.05337214    
 -0.207707494      0.454816014     -0.572727323       936.520691       2.05337214    
 -0.327430397      0.377874792     -0.572727323       936.520691       2.05337214    
 -0.420626789      0.270320386     -0.490909100       1309.14124       2.05337238    
 -0.327430397      0.377874792     -0.490909100       1309.14124       2.05337238    
 -0.327430397      0.377874792     -0.572727323       1309.14124       2.05337238    
 -0.420626789      0.270320386     -0.572727323       1309.14124       2.05337238    
 -0.479746491      0.140866295     -0.490909100       1575.70300       2.05337238    
 -0.420626789      0.270320386     -0.490909100       1575.70300       2.05337238    
 -0.420626789      0.270320386     -0.572727323       1575.70300       2.05337238    
 -0.479746491      0.140866295     -0.572727323       1575.70300       2.05337238    
 -0.500000000       2.84000009E-16 -0.490909100       1714.60999       2.05337262    
 -0.479746491      0.140866295     -0.490909100       1714.60999       2.05337262    
 -0.479746491      0.140866295     -0.572727323       1714.60999       2.05337262    
 -0.500000000       2.84000009E-16 -0.572727323       1714.60999       2.05337262    
  0.479746491      0.140866295     -0.572727323       1632.20349      -1.09709144    
  0.500000000       0.00000000     -0.572727323       1632.20349      -1.09709144    
  0.500000000       0.00000000     -0.654545426       1632.20349      -1.09709144    
  0.479746491      0.140866295     -0.654545426       1632.20349      -1.09709144    
  0.420626789      0.270320386     -0.572727323       1499.97180      -1.09709120    
  0.479746491      0.140866295     -0.572727323       1499.97180      -1.09709120    
  0.479746491      0.140866295     -0.654545426       1499.97180      -1.09709120    
  0.420626789      0.270320386     -0.654545426       1499.97180      -1.09709120    
  0.327430397      0.377874792     -0.572727323       1246.22156      -1.09709144    
  0.420626789      0.270320386     -0.572727323       1246.22156      -1.09709144    
  0.420626789      0.270320386     -0.654545426       1246.22156      -1.09709144    
  0.327430397      0.377874792     -0.654545426       1246.22156      -1.09709144    
  0.207707494      0.454816014     -0.572727323       891.510132      -1.09709144    
  0.327430397      0.377874792     -0.572727323       891.510132      -1.09709144    
  0.327430397      0.377874792     -0.654545426       891.510132      -1.09709144    
  0.207707494      0.454816014     -0.654545426       891.510132      -1.09709144    
   7.11574182E-02  0.494910687     -0.572727323       464.573364      -1.09709132    
  0.207707494      0.454816014     -0.572727323       464.573364      -1.09709132    
  0.207707494      0.454816014     -0.654545426       464.573364      -1.09709132    
   7.11574182E-02  0.494910687     -0.654545426       464.573364      -1.09709132    
  -7.11574182E-02  0.494910687     -0.572727323       8.60368018E-05   1.51144195    
   7.11574182E-02  0.494910687     -0.572727323       8.60368018E-05   1.51144195    
   7.11574182E-02  0.494910687     -0.654545426       8.60368018E-05   1.51144195    
  -7.11574182E-02  0.494910687     -0.654545426       8.60368018E-05   1.51144195    
 -0.207707494      0.454816014     -0.572727323       464.573578       2.04450130    
  -7.11574182E-02  0.494910687     -0.572727323       464.573578       2.04450130    
  -7.11574182E-02  0.494910687     -0.654545426       464.573578       2.04450130    
 -0.207707494      0.454816014     -0.654545426       464.573578       2.04450130    
 -0.327430397      0.377874792     -0.572727323       891.510254       2.04450107    
 -0.207707494      0.454816014     -0.572727323       891.510254       2.04450107    
 -0.207707494      0.454816014     -0.654545426       891.510254       2.04450107    
 -0.327430397      0.377874792     -0.654545426       891.510254       2.04450107    
 -0.420626789      0.270320386     -0.572727323       1246.22156       2.04450107    
 -0.327430397      0.377874792     -0.572727323       1246.22156       2.04450107    
 -0.327430397      0.377874792     -0.654545426       1246.22156       2.04450107    
 -0.420626789      0.270320386     -0.654545426       1246.22156       2.04450107    
 -0.479746491      0.140866295     -0.572727323       1499.97156       2.04450154    
 -0.420626789      0.270320386     -0.572727323       1499.97156       2.04450154    
 -0.420626789      0.270320386     -0.654545426       1499.97156       2.04450154    