 VARIABLES="X" "Y" "Z" "abs(p) (Pa)" "angle(p) (rad)"
ZONE N=    528,E =     462, F=FEPOINT, ET=QUADRILATERAL
  0.479746491      0.140866295       0.00000000       622.862732       1.61563861    
  0.500000000       0.00000000       0.00000000       622.862732       1.61563861    
  0.500000000       0.00000000      -8.18181783E-02   622.862732       1.61563861    
  0.479746491      0.140866295      -8.18181783E-02   622.862732       1.61563861    
  0.420626789      0.270320386       0.00000000       1818.12329       1.61563468    
  0.479746491      0.140866295       0.00000000       1818.12329       1.61563468    
  0.479746491      0.140866295      -8.18181783E-02   1818.12329       1.61563468    
  0.420626789      0.270320386      -8.18181783E-02   1818.12329       1.61563468    
  0.327430397      0.377874792       0.00000000       2866.09131       1.61563504    
  0.420626789      0.270320386       0.00000000       2866.09131       1.61563504    
  0.420626789      0.270320386      -8.18181783E-02   2866.09131       1.61563504    
  0.327430397      0.377874792      -8.18181783E-02   2866.09131       1.61563504    
  0.207707494      0.454816014       0.00000000       3681.86401       1.61563492    
  0.327430397      0.377874792       0.00000000       3681.86401       1.61563492    
  0.327430397      0.377874792      -8.18181783E-02   3681.86401       1.61563492    
  0.207707494      0.454816014      -8.18181783E-02   3681.86401       1.61563492    
   7.11574182E-02  0.494910687       0.00000000       4199.35498       1.61563540    
  0.207707494      0.454816014       0.00000000       4199.35498       1.61563540    
  0.207707494      0.454816014      -8.18181783E-02   4199.35498       1.61563540    
   7.11574182E-02  0.494910687      -8.18181783E-02   4199.35498       1.61563540    
  -7.11574182E-02  0.494910687       0.00000000       4376.64648       1.61563492    
   7.11574182E-02  0.494910687       0.00000000       4376.64648       1.61563492    
   7.11574182E-02  0.494910687      -8.18181783E-02   4376.64648       1.61563492    
  -7.11574182E-02  0.494910687      -8.18181783E-02   4376.64648       1.61563492    
 -0.207707494      0.454816014       0.00000000       4199.35596       1.61563563    
  -7.11574182E-02  0.494910687       0.00000000       4199.35596       1.61563563    
  -7.11574182E-02  0.494910687      -8.18181783E-02   4199.35596       1.61563563    
 -0.207707494      0.454816014      -8.18181783E-02   4199.35596       1.61563563    
 -0.327430397      0.377874792       0.00000000       3681.86426       1.61563528    
 -0.207707494      0.454816014       0.00000000       3681.86426       1.61563528    
 -0.207707494      0.454816014      -8.18181783E-02   3681.86426       1.61563528    
 -0.327430397      0.377874792      -8.18181783E-02   3681.86426       1.61563528    
 -0.420626789      0.270320386       0.00000000       2866.09229       1.61563504    
 -0.327430397      0.377874792       0.00000000       2866.09229       1.61563504    
 -0.327430397      0.377874792      -8.18181783E-02   2866.09229       1.61563504    
 -0.420626789      0.270320386      -8.18181783E-02   2866.09229       1.61563504    
 -0.479746491      0.140866295       0.00000000       1818.12354       1.61563432    
 -0.420626789      0.270320386       0.00000000       1818.12354       1.61563432    
 -0.420626789      0.270320386      -8.18181783E-02   1818.12354       1.61563432    
 -0.479746491      0.140866295      -8.18181783E-02   1818.12354       1.61563432    
 -0.500000000       2.84000009E-16   0.00000000       622.861633       1.61563873    
 -0.479746491      0.140866295       0.00000000       622.861633       1.61563873    
 -0.479746491      0.140866295      -8.18181783E-02   622.861633       1.61563873    
 -0.500000000       2.84000009E-16  -8.18181783E-02   622.861633       1.61563873    
  0.479746491      0.140866295      -8.18181783E-02   616.449402       1.61566746    
  0.500000000       0.00000000      -8.18181783E-02   616.449402       1.61566746    
  0.500000000       0.00000000     -0.163636401       616.449402       1.61566746    
  0.479746491      0.140866295     -0.163636401       616.449402       1.61566746    
  0.420626789      0.270320386      -8.18181783E-02   1799.40515       1.61566710    
  0.479746491      0.140866295      -8.18181783E-02   1799.40515       1.61566710    
  0.479746491      0.140866295     -0.163636401       1799.40515       1.61566710    
  0.420626789      0.270320386     -0.163636401       1799.40515       1.61566710    
  0.327430397      0.377874792      -8.18181783E-02   2836.58569       1.61566603    
  0.420626789      0.270320386      -8.18181783E-02   2836.58569       1.61566603    
  0.420626789      0.270320386     -0.163636401       2836.58569       1.61566603    
  0.327430397      0.377874792     -0.163636401       2836.58569       1.61566603    
  0.207707494      0.454816014      -8.18181783E-02   3643.96289       1.61566687    
  0.327430397      0.377874792      -8.18181783E-02   3643.96289       1.61566687    
  0.327430397      0.377874792     -0.163636401       3643.96289       1.61566687    
  0.207707494      0.454816014     -0.163636401       3643.96289       1.61566687    
   7.11574182E-02  0.494910687      -8.18181783E-02   4156.12793       1.61566639    
  0.207707494      0.454816014      -8.18181783E-02   4156.12793       1.61566639    
  0.207707494      0.454816014     -0.163636401       4156.12793       1.61566639    
   7.11574182E-02  0.494910687     -0.163636401       4156.12793       1.61566639    
  -7.11574182E-02  0.494910687      -8.18181783E-02   4331.58740       1.61566710    
   7.11574182E-02  0.494910687      -8.18181783E-02   4331.58740       1.61566710    
   7.11574182E-02  0.494910687     -0.163636401       4331.58740       1.61566710    
  -7.11574182E-02  0.494910687     -0.163636401       4331.58740       1.61566710    
 -0.207707494      0.454816014      -8.18181783E-02   4156.12939       1.61566591    
  -7.11574182E-02  0.494910687      -8.18181783E-02   4156.12939       1.61566591    
  -7.11574182E-02  0.494910687     -0.163636401       4156.12939       1.61566591    
 -0.207707494      0.454816014     -0.163636401       4156.12939       1.61566591    
 -0.327430397      0.377874792      -8.18181783E-02   3643.96411       1.61566710    
 -0.207707494      0.454816014      -8.18181783E-02   3643.96411       1.61566710    
 -0.207707494      0.454816014     -0.163636401       3643.96411       1.61566710    
 -0.327430397      0.377874792     -0.163636401       3643.96411       1.61566710    
 -0.420626789      0.270320386      -8.18181783E-02   2836.58716       1.61566615    
 -0.327430397      0.377874792      -8.18181783E-02   2836.58716       1.61566615    
 -0.327430397      0.377874792     -0.163636401       2836.58716       1.61566615    
 -0.420626789      0.270320386     -0.163636401       2836.58716       1.61566615    
 -0.479746491      0.140866295      -8.18181783E-02   1799.40405       1.61566710    
 -0.420626789      0.270320386      -8.18181783E-02   1799.40405       1.61566710    
 -0.420626789      0.270320386     -0.163636401       1799.40405       1.61566710    
 -0.479746491      0.140866295     -0.163636401       1799.40405       1.61566710    
 -0.500000000       2.84000009E-16  -8.18181783E-02   616.449402       1.61566699    
 -0.479746491      0.140866295      -8.18181783E-02   616.449402       1.61566699    
 -0.479746491      0.140866295     -0.163636401       616.449402       1.61566699    
 -0.500000000       2.84000009E-16 -0.163636401       616.449402       1.61566699    
  0.479746491      0.140866295     -0.163636401       608.597778       1.61578035    
  0.500000000       0.00000000     -0.163636401       608.597778       1.61578035    
  0.500000000       0.00000000     -0.245454505       608.597778       1.61578035    
  0.479746491      0.140866295     -0.245454505       608.597778       1.61578035    
  0.420626789      0.270320386     -0.163636401       1776.48877       1.61577964    
  0.479746491      0.140866295     -0.163636401       1776.48877       1.61577964    
  0.479746491      0.140866295     -0.245454505       1776.48877       1.61577964    
  0.420626789      0.270320386     -0.245454505       1776.48877       1.61577964    
  0.327430397      0.377874792     -0.163636401       2800.45483       1.61578143    
  0.420626789      0.270320386     -0.163636401       2800.45483       1.61578143    
  0.420626789      0.270320386     -0.245454505       2800.45483       1.61578143    
  0.327430397      0.377874792     -0.245454505       2800.45483       1.61578143    
  0.207707494      0.454816014     -0.163636401       3597.54736       1.61578131    
  0.327430397      0.377874792     -0.163636401       3597.54736       1.61578131    
  0.327430397      0.377874792     -0.245454505       3597.54736       1.61578131    
  0.207707494      0.454816014     -0.245454505       3597.54736       1.61578131    
   7.11574182E-02  0.494910687     -0.163636401       4103.18896       1.61578131    
  0.207707494      0.454816014     -0.163636401       4103.18896       1.61578131    
  0.207707494      0.454816014     -0.245454505       4103.18896       1.61578131    
   7.11574182E-02  0.494910687     -0.245454505       4103.18896       1.61578131    
  -7.11574182E-02  0.494910687     -0.163636401       4276.41064       1.61578131    
   7.11574182E-02  0.494910687     -0.163636401       4276.41064       1.61578131    
   7.11574182E-02  0.494910687     -0.245454505       4276.41064       1.61578131    
  -7.11574182E-02  0.494910687     -0.245454505       4276.41064       1.61578131    
 -0.207707494      0.454816014     -0.163636401       4103.19043       1.61578131    
  -7.11574182E-02  0.494910687     -0.163636401       4103.19043       1.61578131    
  -7.11574182E-02  0.494910687     -0.245454505       4103.19043       1.61578131    
 -0.207707494      0.454816014     -0.245454505       4103.19043       1.61578131    
 -0.327430397      0.377874792     -0.163636401       3597.54688       1.61578107    
 -0.207707494      0.454816014     -0.163636401       3597.54688       1.61578107    
 -0.207707494      0.454816014     -0.245454505       3597.54688       1.61578107    
 -0.327430397      0.377874792     -0.245454505       3597.54688       1.61578107    
 -0.420626789      0.270320386     -0.163636401       2800.45361       1.61578119    
 -0.327430397      0.377874792     -0.163636401       2800.45361       1.61578119    
 -0.327430397      0.377874792     -0.245454505       2800.45361       1.61578119    
 -0.420626789      0.270320386     -0.245454505       2800.45361       1.61578119    
 -0.479746491      0.140866295     -0.163636401       1776.48816       1.61577904    
 -0.420626789      0.270320386     -0.163636401       1776.48816       1.61577904    
 -0.420626789      0.270320386     -0.245454505       1776.48816       1.61577904    
 -0.479746491      0.140866295     -0.245454505       1776.48816       1.61577904    
 -0.500000000       2.84000009E-16 -0.163636401       608.597778       1.61578000    
 -0.479746491      0.140866295     -0.163636401       608.597778       1.61578000    
 -0.479746491      0.140866295     -0.245454505       608.597778       1.61578000    
 -0.500000000       2.84000009E-16 -0.245454505       608.597778       1.61578000    
  0.479746491      0.140866295     -0.245454505       599.850891       1.61595953    
  0.500000000       0.00000000     -0.245454505       599.850891       1.61595953    
  0.500000000       0.00000000     -0.327272713       599.850891       1.61595953    
  0.479746491      0.140866295     -0.327272713       599.850891       1.61595953    
  0.420626789      0.270320386     -0.245454505       1750.96521       1.61595881    
  0.479746491      0.140866295     -0.245454505       1750.96521       1.61595881    
  0.479746491      0.140866295     -0.327272713       1750.96521       1.61595881    
  0.420626789      0.270320386     -0.327272713       1750.96521       1.61595881    
  0.327430397      0.377874792     -0.245454505       2760.21753       1.61596036    
  0.420626789      0.270320386     -0.245454505       2760.21753       1.61596036    
  0.420626789      0.270320386     -0.327272713       2760.21753       1.61596036    
  0.327430397      0.377874792     -0.327272713       2760.21753       1.61596036    
  0.207707494      0.454816014     -0.245454505       3545.86450       1.61595905    
  0.327430397      0.377874792     -0.245454505       3545.86450       1.61595905    
  0.327430397      0.377874792     -0.327272713       3545.86450       1.61595905    
  0.207707494      0.454816014     -0.327272713       3545.86450       1.61595905    
   7.11574182E-02  0.494910687     -0.245454505       4044.23242       1.61596000    
  0.207707494      0.454816014     -0.245454505       4044.23242       1.61596000    
  0.207707494      0.454816014     -0.327272713       4044.23242       1.61596000    
   7.11574182E-02  0.494910687     -0.327272713       4044.23242       1.61596000    
  -7.11574182E-02  0.494910687     -0.245454505       4214.97119       1.61595953    
   7.11574182E-02  0.494910687     -0.245454505       4214.97119       1.61595953    
   7.11574182E-02  0.494910687     -0.327272713       4214.97119       1.61595953    
  -7.11574182E-02  0.494910687     -0.327272713       4214.97119       1.61595953    
 -0.207707494      0.454816014     -0.245454505       4044.23193       1.61595964    
  -7.11574182E-02  0.494910687     -0.245454505       4044.23193       1.61595964    
  -7.11574182E-02  0.494910687     -0.327272713       4044.23193       1.61595964    
 -0.207707494      0.454816014     -0.327272713       4044.23193       1.61595964    
 -0.327430397      0.377874792     -0.245454505       3545.86475       1.61595881    
 -0.207707494      0.454816014     -0.245454505       3545.86475       1.61595881    
 -0.207707494      0.454816014     -0.327272713       3545.86475       1.61595881    
 -0.327430397      0.377874792     -0.327272713       3545.86475       1.61595881    
 -0.420626789      0.270320386     -0.245454505       2760.21851       1.61595988    
 -0.327430397      0.377874792     -0.245454505       2760.21851       1.61595988    
 -0.327430397      0.377874792     -0.327272713       2760.21851       1.61595988    
 -0.420626789      0.270320386     -0.327272713       2760.21851       1.61595988    
 -0.479746491      0.140866295     -0.245454505       1750.96411       1.61595881    
 -0.420626789      0.270320386     -0.245454505       1750.96411       1.61595881    
 -0.420626789      0.270320386     -0.327272713       1750.96411       1.61595881    
 -0.479746491      0.140866295     -0.327272713       1750.96411       1.61595881    
 -0.500000000       2.84000009E-16 -0.245454505       599.850891       1.61595821    
 -0.479746491      0.140866295     -0.245454505       599.850891       1.61595821    
 -0.479746491      0.140866295     -0.327272713       599.850891       1.61595821    
 -0.500000000       2.84000009E-16 -0.327272713       599.850891       1.61595821    
  0.479746491      0.140866295     -0.327272713       590.083862       1.61621189    
  0.500000000       0.00000000     -0.327272713       590.083862       1.61621189    
  0.500000000       0.00000000     -0.409090906       590.083862       1.61621189    
  0.479746491      0.140866295     -0.409090906       590.083862       1.61621189    
  0.420626789      0.270320386     -0.327272713       1722.45398       1.61620772    
  0.479746491      0.140866295     -0.327272713       1722.45398       1.61620772    
  0.479746491      0.140866295     -0.409090906       1722.45398       1.61620772    
  0.420626789      0.270320386     -0.409090906       1722.45398       1.61620772    
  0.327430397      0.377874792     -0.327272713       2715.28125       1.61620843    
  0.420626789      0.270320386     -0.327272713       2715.28125       1.61620843    
  0.420626789      0.270320386     -0.409090906       2715.28125       1.61620843    
  0.327430397      0.377874792     -0.409090906       2715.28125       1.61620843    
  0.207707494      0.454816014     -0.327272713       3488.12915       1.61620796    
  0.327430397      0.377874792     -0.327272713       3488.12915       1.61620796    
  0.327430397      0.377874792     -0.409090906       3488.12915       1.61620796    
  0.207707494      0.454816014     -0.409090906       3488.12915       1.61620796    
   7.11574182E-02  0.494910687     -0.327272713       3978.38623       1.61620843    
  0.207707494      0.454816014     -0.327272713       3978.38623       1.61620843    
  0.207707494      0.454816014     -0.409090906       3978.38623       1.61620843    
   7.11574182E-02  0.494910687     -0.409090906       3978.38623       1.61620843    
  -7.11574182E-02  0.494910687     -0.327272713       4146.34326       1.61620772    
   7.11574182E-02  0.494910687     -0.327272713       4146.34326       1.61620772    
   7.11574182E-02  0.494910687     -0.409090906       4146.34326       1.61620772    
  -7.11574182E-02  0.494910687     -0.409090906       4146.34326       1.61620772    
 -0.207707494      0.454816014     -0.327272713       3978.38818       1.61620820    
  -7.11574182E-02  0.494910687     -0.327272713       3978.38818       1.61620820    
  -7.11574182E-02  0.494910687     -0.409090906       3978.38818       1.61620820    
 -0.207707494      0.454816014     -0.409090906       3978.38818       1.61620820    
 -0.327430397      0.377874792     -0.327272713       3488.13037       1.61620831    
 -0.207707494      0.454816014     -0.327272713       3488.13037       1.61620831    
 -0.207707494      0.454816014     -0.409090906       3488.13037       1.61620831    
 -0.327430397      0.377874792     -0.409090906       3488.13037       1.61620831    
 -0.420626789      0.270320386     -0.327272713       2715.28125       1.61620831    
 -0.327430397      0.377874792     -0.327272713       2715.28125       1.61620831    
 -0.327430397      0.377874792     -0.409090906       2715.28125       1.61620831    
 -0.420626789      0.270320386     -0.409090906       2715.28125       1.61620831    
 -0.479746491      0.140866295     -0.327272713       1722.45374       1.61620879    
 -0.420626789      0.270320386     -0.327272713       1722.45374       1.61620879    
 -0.420626789      0.270320386     -0.409090906       1722.45374       1.61620879    
 -0.479746491      0.140866295     -0.409090906       1722.45374       1.61620879    
 -0.500000000       2.84000009E-16 -0.327272713       590.084351       1.61620998    
 -0.479746491      0.140866295     -0.327272713       590.084351       1.61620998    
 -0.479746491      0.140866295     -0.409090906       590.084351       1.61620998    
 -0.500000000       2.84000009E-16 -0.409090906       590.084351       1.61620998    
  0.479746491      0.140866295     -0.409090906       579.016418       1.61654449    
  0.500000000       0.00000000     -0.409090906       579.016418       1.61654449    
  0.500000000       0.00000000     -0.490909100       579.016418       1.61654449    
  0.479746491      0.140866295     -0.490909100       579.016418       1.61654449    
  0.420626789      0.270320386     -0.409090906       1690.14001       1.61654031    
  0.479746491      0.140866295     -0.409090906       1690.14001       1.61654031    
  0.479746491      0.140866295     -0.490909100       1690.14001       1.61654031    
  0.420626789      0.270320386     -0.490909100       1690.14001       1.61654031    
  0.327430397      0.377874792     -0.409090906       2664.34033       1.61654258    
  0.420626789      0.270320386     -0.409090906       2664.34033       1.61654258    
  0.420626789      0.270320386     -0.490909100       2664.34033       1.61654258    
  0.327430397      0.377874792     -0.490909100       2664.34033       1.61654258    
  0.207707494      0.454816014     -0.409090906       3422.69312       1.61654186    
  0.327430397      0.377874792     -0.409090906       3422.69312       1.61654186    
  0.327430397      0.377874792     -0.490909100       3422.69312       1.61654186    
  0.207707494      0.454816014     -0.490909100       3422.69312       1.61654186    
   7.11574182E-02  0.494910687     -0.409090906       3903.75513       1.61654258    
  0.207707494      0.454816014     -0.409090906       3903.75513       1.61654258    
  0.207707494      0.454816014     -0.490909100       3903.75513       1.61654258    
   7.11574182E-02  0.494910687     -0.490909100       3903.75513       1.61654258    
  -7.11574182E-02  0.494910687     -0.409090906       4068.56201       1.61654127    
   7.11574182E-02  0.494910687     -0.409090906       4068.56201       1.61654127    
   7.11574182E-02  0.494910687     -0.490909100       4068.56201       1.61654127    
  -7.11574182E-02  0.494910687     -0.490909100       4068.56201       1.61654127    
 -0.207707494      0.454816014     -0.409090906       3903.75513       1.61654246    
  -7.11574182E-02  0.494910687     -0.409090906       3903.75513       1.61654246    
  -7.11574182E-02  0.494910687     -0.490909100       3903.75513       1.61654246    
 -0.207707494      0.454816014     -0.490909100       3903.75513       1.61654246    
 -0.327430397      0.377874792     -0.409090906       3422.69434       1.61654150    
 -0.207707494      0.454816014     -0.409090906       3422.69434       1.61654150    
 -0.207707494      0.454816014     -0.490909100       3422.69434       1.61654150    
 -0.327430397      0.377874792     -0.490909100       3422.69434       1.61654150    
 -0.420626789      0.270320386     -0.409090906       2664.34106       1.61654222    
 -0.327430397      0.377874792     -0.409090906       2664.34106       1.61654222    
 -0.327430397      0.377874792     -0.490909100       2664.34106       1.61654222    
 -0.420626789      0.270320386     -0.490909100       2664.34106       1.61654222    
 -0.479746491      0.140866295     -0.409090906       1690.14075       1.61653960    
 -0.420626789      0.270320386     -0.409090906       1690.14075       1.61653960    
 -0.420626789      0.270320386     -0.490909100       1690.14075       1.61653960    
 -0.479746491      0.140866295     -0.490909100       1690.14075       1.61653960    
 -0.500000000       2.84000009E-16 -0.409090906       579.016907       1.61654449    
 -0.479746491      0.140866295     -0.409090906       579.016907       1.61654449    
 -0.479746491      0.140866295     -0.490909100       579.016907       1.61654449    
 -0.500000000       2.84000009E-16 -0.490909100       579.016907       1.61654449    
  0.479746491      0.140866295     -0.490909100       566.077881       1.61698556    
  0.500000000       0.00000000     -0.490909100       566.077881       1.61698556    
  0.500000000       0.00000000     -0.572727323       566.077881       1.61698556    
  0.479746491      0.140866295     -0.572727323       566.077881       1.61698556    
  0.420626789      0.270320386     -0.490909100       1652.37439       1.61698341    
  0.479746491      0.140866295     -0.490909100       1652.37439       1.61698341    
  0.479746491      0.140866295     -0.572727323       1652.37439       1.61698341    
  0.420626789      0.270320386     -0.572727323       1652.37439       1.61698341    
  0.327430397      0.377874792     -0.490909100       2604.80640       1.61698472    
  0.420626789      0.270320386     -0.490909100       2604.80640       1.61698472    
  0.420626789      0.270320386     -0.572727323       2604.80640       1.61698472    
  0.327430397      0.377874792     -0.572727323       2604.80640       1.61698472    
  0.207707494      0.454816014     -0.490909100       3346.20532       1.61698425    
  0.327430397      0.377874792     -0.490909100       3346.20532       1.61698425    
  0.327430397      0.377874792     -0.572727323       3346.20532       1.61698425    
  0.207707494      0.454816014     -0.572727323       3346.20532       1.61698425    
   7.11574182E-02  0.494910687     -0.490909100       3816.52100       1.61698508    
  0.207707494      0.454816014     -0.490909100       3816.52100       1.61698508    
  0.207707494      0.454816014     -0.572727323       3816.52100       1.61698508    
   7.11574182E-02  0.494910687     -0.572727323       3816.52100       1.61698508    
  -7.11574182E-02  0.494910687     -0.490909100       3977.64185       1.61698568    
   7.11574182E-02  0.494910687     -0.490909100       3977.64185       1.61698568    
   7.11574182E-02  0.494910687     -0.572727323       3977.64185       1.61698568    
  -7.11574182E-02  0.494910687     -0.572727323       3977.64185       1.61698568    
 -0.207707494      0.454816014     -0.490909100       3816.52271       1.61698508    
  -7.11574182E-02  0.494910687     -0.490909100       3816.52271       1.61698508    
  -7.11574182E-02  0.494910687     -0.572727323       3816.52271       1.61698508    
 -0.207707494      0.454816014     -0.572727323       3816.52271       1.61698508    
 -0.327430397      0.377874792     -0.490909100       3346.20483       1.61698413    
 -0.207707494      0.454816014     -0.490909100       3346.20483       1.61698413    
 -0.207707494      0.454816014     -0.572727323       3346.20483       1.61698413    
 -0.327430397      0.377874792     -0.572727323       3346.20483       1.61698413    
 -0.420626789      0.270320386     -0.490909100       2604.80591       1.61698461    
 -0.327430397      0.377874792     -0.490909100       2604.80591       1.61698461    
 -0.327430397      0.377874792     -0.572727323       2604.80591       1.61698461    
 -0.420626789      0.270320386     -0.572727323       2604.80591       1.61698461    
 -0.479746491      0.140866295     -0.490909100       1652.37415       1.61698341    
 -0.420626789      0.270320386     -0.490909100       1652.37415       1.61698341    
 -0.420626789      0.270320386     -0.572727323       1652.37415       1.61698341    
 -0.479746491      0.140866295     -0.572727323       1652.37415       1.61698341    
 -0.500000000       2.84000009E-16 -0.490909100       566.078674       1.61698306    
 -0.479746491      0.140866295     -0.490909100       566.078674       1.61698306    
 -0.479746491      0.140866295     -0.572727323       566.078674       1.61698306    
 -0.500000000       2.84000009E-16 -0.572727323       566.078674       1.61698306    
  0.479746491      0.140866295     -0.572727323       550.367310       1.61757851    
  0.500000000       0.00000000     -0.572727323       550.367310       1.61757851    
  0.500000000       0.00000000     -0.654545426       550.367310       1.61757851    
  0.479746491      0.140866295     -0.654545426       550.367310       1.61757851    
  0.420626789      0.270320386     -0.572727323       1606.50745       1.61758327    
  0.479746491      0.140866295     -0.572727323       1606.50745       1.61758327    
  0.479746491      0.140866295     -0.654545426       1606.50745       1.61758327    
  0.420626789      0.270320386     -0.654545426       1606.50745       1.61758327    
  0.327430397      0.377874792     -0.572727323       2532.49854       1.61758256    
  0.420626789      0.270320386     -0.572727323       2532.49854       1.61758256    
  0.420626789      0.270320386     -0.654545426       2532.49854       1.61758256    
  0.327430397      0.377874792     -0.654545426       2532.49854       1.61758256    
  0.207707494      0.454816014     -0.572727323       3253.32544       1.61758292    
  0.327430397      0.377874792     -0.572727323       3253.32544       1.61758292    
  0.327430397      0.377874792     -0.654545426       3253.32544       1.61758292    
  0.207707494      0.454816014     -0.654545426       3253.32544       1.61758292    
   7.11574182E-02  0.494910687     -0.572727323       3710.58228       1.61758316    
  0.207707494      0.454816014     -0.572727323       3710.58228       1.61758316    
  0.207707494      0.454816014     -0.654545426       3710.58228       1.61758316    
   7.11574182E-02  0.494910687     -0.654545426       3710.58228       1.61758316    
  -7.11574182E-02  0.494910687     -0.572727323       3867.23853       1.61758280    
   7.11574182E-02  0.494910687     -0.572727323       3867.23853       1.61758280    
   7.11574182E-02  0.494910687     -0.654545426       3867.23853       1.61758280    
  -7.11574182E-02  0.494910687     -0.654545426       3867.23853       1.61758280    
 -0.207707494      0.454816014     -0.572727323       3710.58130       1.61758327    
  -7.11574182E-02  0.494910687     -0.572727323       3710.58130       1.61758327    
  -7.11574182E-02  0.494910687     -0.654545426       3710.58130       1.61758327    
 -0.207707494      0.454816014     -0.654545426       3710.58130       1.61758327    
 -0.327430397      0.377874792     -0.572727323       3253.32617       1.61758244    
 -0.207707494      0.454816014     -0.572727323       3253.32617       1.61758244    
 -0.207707494      0.454816014     -0.654545426       3253.32617       1.61758244    
 -0.327430397      0.377874792     -0.654545426       3253.32617       1.61758244    
 -0.420626789      0.270320386     -0.572727323       2532.49854       1.61758196    
 -0.327430397      0.377874792     -0.572727323       2532.49854       1.61758196    
 -0.327430397      0.377874792     -0.654545426       2532.49854       1.61758196    
 -0.420626789      0.270320386     -0.654545426       2532.49854       1.61758196    
 -0.479746491      0.140866295     -0.572727323       1606.50818       1.61758327    
 -0.420626789      0.270320386     -0.572727323       1606.50818       1.61758327    
 -0.420626789      0.270320386     -0.654545426       1606.50818       1.61758327    