 VARIABLES="X" "Y" "Z" "abs(p) (Pa)" "angle(p) (rad)"
ZONE N=    528,E =     462, F=FEPOINT, ET=QUADRILATERAL
  0.479746491      0.140866295       0.00000000       96.4181595      -1.51457357    
  0.500000000       0.00000000       0.00000000       96.4181595      -1.51457357    
  0.500000000       0.00000000      -8.18181783E-02   96.4181595      -1.51457357    
  0.479746491      0.140866295      -8.18181783E-02   96.4181595      -1.51457357    
  0.420626789      0.270320386       0.00000000       281.443451      -1.51457286    
  0.479746491      0.140866295       0.00000000       281.443451      -1.51457286    
  0.479746491      0.140866295      -8.18181783E-02   281.443451      -1.51457286    
  0.420626789      0.270320386      -8.18181783E-02   281.443451      -1.51457286    
  0.327430397      0.377874792       0.00000000       443.667145      -1.51457369    
  0.420626789      0.270320386       0.00000000       443.667145      -1.51457369    
  0.420626789      0.270320386      -8.18181783E-02   443.667145      -1.51457369    
  0.327430397      0.377874792      -8.18181783E-02   443.667145      -1.51457369    
  0.207707494      0.454816014       0.00000000       569.948853      -1.51457393    
  0.327430397      0.377874792       0.00000000       569.948853      -1.51457393    
  0.327430397      0.377874792      -8.18181783E-02   569.948853      -1.51457393    
  0.207707494      0.454816014      -8.18181783E-02   569.948853      -1.51457393    
   7.11574182E-02  0.494910687       0.00000000       650.055237      -1.51457441    
  0.207707494      0.454816014       0.00000000       650.055237      -1.51457441    
  0.207707494      0.454816014      -8.18181783E-02   650.055237      -1.51457441    
   7.11574182E-02  0.494910687      -8.18181783E-02   650.055237      -1.51457441    
  -7.11574182E-02  0.494910687       0.00000000       677.498901      -1.51457429    
   7.11574182E-02  0.494910687       0.00000000       677.498901      -1.51457429    
   7.11574182E-02  0.494910687      -8.18181783E-02   677.498901      -1.51457429    
  -7.11574182E-02  0.494910687      -8.18181783E-02   677.498901      -1.51457429    
 -0.207707494      0.454816014       0.00000000       650.055298      -1.51457405    
  -7.11574182E-02  0.494910687       0.00000000       650.055298      -1.51457405    
  -7.11574182E-02  0.494910687      -8.18181783E-02   650.055298      -1.51457405    
 -0.207707494      0.454816014      -8.18181783E-02   650.055298      -1.51457405    
 -0.327430397      0.377874792       0.00000000       569.949036      -1.51457381    
 -0.207707494      0.454816014       0.00000000       569.949036      -1.51457381    
 -0.207707494      0.454816014      -8.18181783E-02   569.949036      -1.51457381    
 -0.327430397      0.377874792      -8.18181783E-02   569.949036      -1.51457381    
 -0.420626789      0.270320386       0.00000000       443.666779      -1.51457334    
 -0.327430397      0.377874792       0.00000000       443.666779      -1.51457334    
 -0.327430397      0.377874792      -8.18181783E-02   443.666779      -1.51457334    
 -0.420626789      0.270320386      -8.18181783E-02   443.666779      -1.51457334    
 -0.479746491      0.140866295       0.00000000       281.443329      -1.51457286    
 -0.420626789      0.270320386       0.00000000       281.443329      -1.51457286    
 -0.420626789      0.270320386      -8.18181783E-02   281.443329      -1.51457286    
 -0.479746491      0.140866295      -8.18181783E-02   281.443329      -1.51457286    
 -0.500000000       2.84000009E-16   0.00000000       96.4178314      -1.51457155    
 -0.479746491      0.140866295       0.00000000       96.4178314      -1.51457155    
 -0.479746491      0.140866295      -8.18181783E-02   96.4178314      -1.51457155    
 -0.500000000       2.84000009E-16  -8.18181783E-02   96.4178314      -1.51457155    
  0.479746491      0.140866295      -8.18181783E-02   95.4919586      -1.51469314    
  0.500000000       0.00000000      -8.18181783E-02   95.4919586      -1.51469314    
  0.500000000       0.00000000     -0.163636401       95.4919586      -1.51469314    
  0.479746491      0.140866295     -0.163636401       95.4919586      -1.51469314    
  0.420626789      0.270320386      -8.18181783E-02   278.739227      -1.51469183    
  0.479746491      0.140866295      -8.18181783E-02   278.739227      -1.51469183    
  0.479746491      0.140866295     -0.163636401       278.739227      -1.51469183    
  0.420626789      0.270320386     -0.163636401       278.739227      -1.51469183    
  0.327430397      0.377874792      -8.18181783E-02   439.404480      -1.51469207    
  0.420626789      0.270320386      -8.18181783E-02   439.404480      -1.51469207    
  0.420626789      0.270320386     -0.163636401       439.404480      -1.51469207    
  0.327430397      0.377874792     -0.163636401       439.404480      -1.51469207    
  0.207707494      0.454816014      -8.18181783E-02   564.473022      -1.51469195    
  0.327430397      0.377874792      -8.18181783E-02   564.473022      -1.51469195    
  0.327430397      0.377874792     -0.163636401       564.473022      -1.51469195    
  0.207707494      0.454816014     -0.163636401       564.473022      -1.51469195    
   7.11574182E-02  0.494910687      -8.18181783E-02   643.809692      -1.51469147    
  0.207707494      0.454816014      -8.18181783E-02   643.809692      -1.51469147    
  0.207707494      0.454816014     -0.163636401       643.809692      -1.51469147    
   7.11574182E-02  0.494910687     -0.163636401       643.809692      -1.51469147    
  -7.11574182E-02  0.494910687      -8.18181783E-02   670.989563      -1.51469147    
   7.11574182E-02  0.494910687      -8.18181783E-02   670.989563      -1.51469147    
   7.11574182E-02  0.494910687     -0.163636401       670.989563      -1.51469147    
  -7.11574182E-02  0.494910687     -0.163636401       670.989563      -1.51469147    
 -0.207707494      0.454816014      -8.18181783E-02   643.809814      -1.51469195    
  -7.11574182E-02  0.494910687      -8.18181783E-02   643.809814      -1.51469195    
  -7.11574182E-02  0.494910687     -0.163636401       643.809814      -1.51469195    
 -0.207707494      0.454816014     -0.163636401       643.809814      -1.51469195    
 -0.327430397      0.377874792      -8.18181783E-02   564.472717      -1.51469183    
 -0.207707494      0.454816014      -8.18181783E-02   564.472717      -1.51469183    
 -0.207707494      0.454816014     -0.163636401       564.472717      -1.51469183    
 -0.327430397      0.377874792     -0.163636401       564.472717      -1.51469183    
 -0.420626789      0.270320386      -8.18181783E-02   439.404297      -1.51469290    
 -0.327430397      0.377874792      -8.18181783E-02   439.404297      -1.51469290    
 -0.327430397      0.377874792     -0.163636401       439.404297      -1.51469290    
 -0.420626789      0.270320386     -0.163636401       439.404297      -1.51469290    
 -0.479746491      0.140866295      -8.18181783E-02   278.739380      -1.51469183    
 -0.420626789      0.270320386      -8.18181783E-02   278.739380      -1.51469183    
 -0.420626789      0.270320386     -0.163636401       278.739380      -1.51469183    
 -0.479746491      0.140866295     -0.163636401       278.739380      -1.51469183    
 -0.500000000       2.84000009E-16  -8.18181783E-02   95.4917526      -1.51469064    
 -0.479746491      0.140866295      -8.18181783E-02   95.4917526      -1.51469064    
 -0.479746491      0.140866295     -0.163636401       95.4917526      -1.51469064    
 -0.500000000       2.84000009E-16 -0.163636401       95.4917526      -1.51469064    
  0.479746491      0.140866295     -0.163636401       94.4951706      -1.51478934    
  0.500000000       0.00000000     -0.163636401       94.4951706      -1.51478934    
  0.500000000       0.00000000     -0.245454505       94.4951706      -1.51478934    
  0.479746491      0.140866295     -0.245454505       94.4951706      -1.51478934    
  0.420626789      0.270320386     -0.163636401       275.830292      -1.51478720    
  0.479746491      0.140866295     -0.163636401       275.830292      -1.51478720    
  0.479746491      0.140866295     -0.245454505       275.830292      -1.51478720    
  0.420626789      0.270320386     -0.245454505       275.830292      -1.51478720    
  0.327430397      0.377874792     -0.163636401       434.818481      -1.51478839    
  0.420626789      0.270320386     -0.163636401       434.818481      -1.51478839    
  0.420626789      0.270320386     -0.245454505       434.818481      -1.51478839    
  0.327430397      0.377874792     -0.245454505       434.818481      -1.51478839    
  0.207707494      0.454816014     -0.163636401       558.581299      -1.51478827    
  0.327430397      0.377874792     -0.163636401       558.581299      -1.51478827    
  0.327430397      0.377874792     -0.245454505       558.581299      -1.51478827    
  0.207707494      0.454816014     -0.245454505       558.581299      -1.51478827    
   7.11574182E-02  0.494910687     -0.163636401       637.090759      -1.51478863    
  0.207707494      0.454816014     -0.163636401       637.090759      -1.51478863    
  0.207707494      0.454816014     -0.245454505       637.090759      -1.51478863    
   7.11574182E-02  0.494910687     -0.245454505       637.090759      -1.51478863    
  -7.11574182E-02  0.494910687     -0.163636401       663.988647      -1.51478887    
   7.11574182E-02  0.494910687     -0.163636401       663.988647      -1.51478887    
   7.11574182E-02  0.494910687     -0.245454505       663.988647      -1.51478887    
  -7.11574182E-02  0.494910687     -0.245454505       663.988647      -1.51478887    
 -0.207707494      0.454816014     -0.163636401       637.090576      -1.51478815    
  -7.11574182E-02  0.494910687     -0.163636401       637.090576      -1.51478815    
  -7.11574182E-02  0.494910687     -0.245454505       637.090576      -1.51478815    
 -0.207707494      0.454816014     -0.245454505       637.090576      -1.51478815    
 -0.327430397      0.377874792     -0.163636401       558.581177      -1.51478815    
 -0.207707494      0.454816014     -0.163636401       558.581177      -1.51478815    
 -0.207707494      0.454816014     -0.245454505       558.581177      -1.51478815    
 -0.327430397      0.377874792     -0.245454505       558.581177      -1.51478815    
 -0.420626789      0.270320386     -0.163636401       434.818451      -1.51478887    
 -0.327430397      0.377874792     -0.163636401       434.818451      -1.51478887    
 -0.327430397      0.377874792     -0.245454505       434.818451      -1.51478887    
 -0.420626789      0.270320386     -0.245454505       434.818451      -1.51478887    
 -0.479746491      0.140866295     -0.163636401       275.830475      -1.51478791    
 -0.420626789      0.270320386     -0.163636401       275.830475      -1.51478791    
 -0.420626789      0.270320386     -0.245454505       275.830475      -1.51478791    
 -0.479746491      0.140866295     -0.245454505       275.830475      -1.51478791    
 -0.500000000       2.84000009E-16 -0.163636401       94.4949799      -1.51479006    
 -0.479746491      0.140866295     -0.163636401       94.4949799      -1.51479006    
 -0.479746491      0.140866295     -0.245454505       94.4949799      -1.51479006    
 -0.500000000       2.84000009E-16 -0.245454505       94.4949799      -1.51479006    
  0.479746491      0.140866295     -0.245454505       93.4473648      -1.51485145    
  0.500000000       0.00000000     -0.245454505       93.4473648      -1.51485145    
  0.500000000       0.00000000     -0.327272713       93.4473648      -1.51485145    
  0.479746491      0.140866295     -0.327272713       93.4473648      -1.51485145    
  0.420626789      0.270320386     -0.245454505       272.772125      -1.51485157    
  0.479746491      0.140866295     -0.245454505       272.772125      -1.51485157    
  0.479746491      0.140866295     -0.327272713       272.772125      -1.51485157    
  0.420626789      0.270320386     -0.327272713       272.772125      -1.51485157    
  0.327430397      0.377874792     -0.245454505       429.997803      -1.51485157    
  0.420626789      0.270320386     -0.245454505       429.997803      -1.51485157    
  0.420626789      0.270320386     -0.327272713       429.997803      -1.51485157    
  0.327430397      0.377874792     -0.327272713       429.997803      -1.51485157    
  0.207707494      0.454816014     -0.245454505       552.389099      -1.51485074    
  0.327430397      0.377874792     -0.245454505       552.389099      -1.51485074    
  0.327430397      0.377874792     -0.327272713       552.389099      -1.51485074    
  0.207707494      0.454816014     -0.327272713       552.389099      -1.51485074    
   7.11574182E-02  0.494910687     -0.245454505       630.027100      -1.51485062    
  0.207707494      0.454816014     -0.245454505       630.027100      -1.51485062    
  0.207707494      0.454816014     -0.327272713       630.027100      -1.51485062    
   7.11574182E-02  0.494910687     -0.327272713       630.027100      -1.51485062    
  -7.11574182E-02  0.494910687     -0.245454505       656.625366      -1.51485133    
   7.11574182E-02  0.494910687     -0.245454505       656.625366      -1.51485133    
   7.11574182E-02  0.494910687     -0.327272713       656.625366      -1.51485133    
  -7.11574182E-02  0.494910687     -0.327272713       656.625366      -1.51485133    
 -0.207707494      0.454816014     -0.245454505       630.027283      -1.51485085    
  -7.11574182E-02  0.494910687     -0.245454505       630.027283      -1.51485085    
  -7.11574182E-02  0.494910687     -0.327272713       630.027283      -1.51485085    
 -0.207707494      0.454816014     -0.327272713       630.027283      -1.51485085    
 -0.327430397      0.377874792     -0.245454505       552.388977      -1.51485109    
 -0.207707494      0.454816014     -0.245454505       552.388977      -1.51485109    
 -0.207707494      0.454816014     -0.327272713       552.388977      -1.51485109    
 -0.327430397      0.377874792     -0.327272713       552.388977      -1.51485109    
 -0.420626789      0.270320386     -0.245454505       429.997925      -1.51485157    
 -0.327430397      0.377874792     -0.245454505       429.997925      -1.51485157    
 -0.327430397      0.377874792     -0.327272713       429.997925      -1.51485157    
 -0.420626789      0.270320386     -0.327272713       429.997925      -1.51485157    
 -0.479746491      0.140866295     -0.245454505       272.772095      -1.51485062    
 -0.420626789      0.270320386     -0.245454505       272.772095      -1.51485062    
 -0.420626789      0.270320386     -0.327272713       272.772095      -1.51485062    
 -0.479746491      0.140866295     -0.327272713       272.772095      -1.51485062    
 -0.500000000       2.84000009E-16 -0.245454505       93.4472427      -1.51485300    
 -0.479746491      0.140866295     -0.245454505       93.4472427      -1.51485300    
 -0.479746491      0.140866295     -0.327272713       93.4472427      -1.51485300    
 -0.500000000       2.84000009E-16 -0.327272713       93.4472427      -1.51485300    
  0.479746491      0.140866295     -0.327272713       92.2856979      -1.51485121    
  0.500000000       0.00000000     -0.327272713       92.2856979      -1.51485121    
  0.500000000       0.00000000     -0.409090906       92.2856979      -1.51485121    
  0.479746491      0.140866295     -0.409090906       92.2856979      -1.51485121    
  0.420626789      0.270320386     -0.327272713       269.380005      -1.51484978    
  0.479746491      0.140866295     -0.327272713       269.380005      -1.51484978    
  0.479746491      0.140866295     -0.409090906       269.380005      -1.51484978    
  0.420626789      0.270320386     -0.409090906       269.380005      -1.51484978    
  0.327430397      0.377874792     -0.327272713       424.650665      -1.51485097    
  0.420626789      0.270320386     -0.327272713       424.650665      -1.51485097    
  0.420626789      0.270320386     -0.409090906       424.650665      -1.51485097    
  0.327430397      0.377874792     -0.409090906       424.650665      -1.51485097    
  0.207707494      0.454816014     -0.327272713       545.519226      -1.51485085    
  0.327430397      0.377874792     -0.327272713       545.519226      -1.51485085    
  0.327430397      0.377874792     -0.409090906       545.519226      -1.51485085    
  0.207707494      0.454816014     -0.409090906       545.519226      -1.51485085    
   7.11574182E-02  0.494910687     -0.327272713       622.192505      -1.51485002    
  0.207707494      0.454816014     -0.327272713       622.192505      -1.51485002    
  0.207707494      0.454816014     -0.409090906       622.192505      -1.51485002    
   7.11574182E-02  0.494910687     -0.409090906       622.192505      -1.51485002    
  -7.11574182E-02  0.494910687     -0.327272713       648.460571      -1.51485085    
   7.11574182E-02  0.494910687     -0.327272713       648.460571      -1.51485085    
   7.11574182E-02  0.494910687     -0.409090906       648.460571      -1.51485085    
  -7.11574182E-02  0.494910687     -0.409090906       648.460571      -1.51485085    
 -0.207707494      0.454816014     -0.327272713       622.192505      -1.51485014    
  -7.11574182E-02  0.494910687     -0.327272713       622.192505      -1.51485014    
  -7.11574182E-02  0.494910687     -0.409090906       622.192505      -1.51485014    
 -0.207707494      0.454816014     -0.409090906       622.192505      -1.51485014    
 -0.327430397      0.377874792     -0.327272713       545.519104      -1.51485062    
 -0.207707494      0.454816014     -0.327272713       545.519104      -1.51485062    
 -0.207707494      0.454816014     -0.409090906       545.519104      -1.51485062    
 -0.327430397      0.377874792     -0.409090906       545.519104      -1.51485062    
 -0.420626789      0.270320386     -0.327272713       424.650879      -1.51485026    
 -0.327430397      0.377874792     -0.327272713       424.650879      -1.51485026    
 -0.327430397      0.377874792     -0.409090906       424.650879      -1.51485026    
 -0.420626789      0.270320386     -0.409090906       424.650879      -1.51485026    
 -0.479746491      0.140866295     -0.327272713       269.380493      -1.51484907    
 -0.420626789      0.270320386     -0.327272713       269.380493      -1.51484907    
 -0.420626789      0.270320386     -0.409090906       269.380493      -1.51484907    
 -0.479746491      0.140866295     -0.409090906       269.380493      -1.51484907    
 -0.500000000       2.84000009E-16 -0.327272713       92.2857971      -1.51485288    
 -0.479746491      0.140866295     -0.327272713       92.2857971      -1.51485288    
 -0.479746491      0.140866295     -0.409090906       92.2857971      -1.51485288    
 -0.500000000       2.84000009E-16 -0.409090906       92.2857971      -1.51485288    
  0.479746491      0.140866295     -0.409090906       90.9338684      -1.51475370    
  0.500000000       0.00000000     -0.409090906       90.9338684      -1.51475370    
  0.500000000       0.00000000     -0.490909100       90.9338684      -1.51475370    
  0.479746491      0.140866295     -0.490909100       90.9338684      -1.51475370    
  0.420626789      0.270320386     -0.409090906       265.433868      -1.51475668    
  0.479746491      0.140866295     -0.409090906       265.433868      -1.51475668    
  0.479746491      0.140866295     -0.490909100       265.433868      -1.51475668    
  0.420626789      0.270320386     -0.490909100       265.433868      -1.51475668    
  0.327430397      0.377874792     -0.409090906       418.430115      -1.51475585    
  0.420626789      0.270320386     -0.409090906       418.430115      -1.51475585    
  0.420626789      0.270320386     -0.490909100       418.430115      -1.51475585    
  0.327430397      0.377874792     -0.490909100       418.430115      -1.51475585    
  0.207707494      0.454816014     -0.409090906       537.528259      -1.51475561    
  0.327430397      0.377874792     -0.409090906       537.528259      -1.51475561    
  0.327430397      0.377874792     -0.490909100       537.528259      -1.51475561    
  0.207707494      0.454816014     -0.490909100       537.528259      -1.51475561    
   7.11574182E-02  0.494910687     -0.409090906       613.078308      -1.51475537    
  0.207707494      0.454816014     -0.409090906       613.078308      -1.51475537    
  0.207707494      0.454816014     -0.490909100       613.078308      -1.51475537    
   7.11574182E-02  0.494910687     -0.490909100       613.078308      -1.51475537    
  -7.11574182E-02  0.494910687     -0.409090906       638.960938      -1.51475489    
   7.11574182E-02  0.494910687     -0.409090906       638.960938      -1.51475489    
   7.11574182E-02  0.494910687     -0.490909100       638.960938      -1.51475489    
  -7.11574182E-02  0.494910687     -0.490909100       638.960938      -1.51475489    
 -0.207707494      0.454816014     -0.409090906       613.078125      -1.51475525    
  -7.11574182E-02  0.494910687     -0.409090906       613.078125      -1.51475525    
  -7.11574182E-02  0.494910687     -0.490909100       613.078125      -1.51475525    
 -0.207707494      0.454816014     -0.490909100       613.078125      -1.51475525    
 -0.327430397      0.377874792     -0.409090906       537.528320      -1.51475561    
 -0.207707494      0.454816014     -0.409090906       537.528320      -1.51475561    
 -0.207707494      0.454816014     -0.490909100       537.528320      -1.51475561    
 -0.327430397      0.377874792     -0.490909100       537.528320      -1.51475561    
 -0.420626789      0.270320386     -0.409090906       418.430176      -1.51475561    
 -0.327430397      0.377874792     -0.409090906       418.430176      -1.51475561    
 -0.327430397      0.377874792     -0.490909100       418.430176      -1.51475561    
 -0.420626789      0.270320386     -0.490909100       418.430176      -1.51475561    
 -0.479746491      0.140866295     -0.409090906       265.434265      -1.51475716    
 -0.420626789      0.270320386     -0.409090906       265.434265      -1.51475716    
 -0.420626789      0.270320386     -0.490909100       265.434265      -1.51475716    
 -0.479746491      0.140866295     -0.490909100       265.434265      -1.51475716    
 -0.500000000       2.84000009E-16 -0.409090906       90.9338303      -1.51475370    
 -0.479746491      0.140866295     -0.409090906       90.9338303      -1.51475370    
 -0.479746491      0.140866295     -0.490909100       90.9338303      -1.51475370    
 -0.500000000       2.84000009E-16 -0.490909100       90.9338303      -1.51475370    
  0.479746491      0.140866295     -0.490909100       89.2786865      -1.51452267    
  0.500000000       0.00000000     -0.490909100       89.2786865      -1.51452267    
  0.500000000       0.00000000     -0.572727323       89.2786865      -1.51452267    
  0.479746491      0.140866295     -0.572727323       89.2786865      -1.51452267    
  0.420626789      0.270320386     -0.490909100       260.603607      -1.51452076    
  0.479746491      0.140866295     -0.490909100       260.603607      -1.51452076    
  0.479746491      0.140866295     -0.572727323       260.603607      -1.51452076    
  0.420626789      0.270320386     -0.572727323       260.603607      -1.51452076    
  0.327430397      0.377874792     -0.490909100       410.816467      -1.51452219    
  0.420626789      0.270320386     -0.490909100       410.816467      -1.51452219    
  0.420626789      0.270320386     -0.572727323       410.816467      -1.51452219    
  0.327430397      0.377874792     -0.572727323       410.816467      -1.51452219    
  0.207707494      0.454816014     -0.490909100       527.747009      -1.51452160    
  0.327430397      0.377874792     -0.490909100       527.747009      -1.51452160    
  0.327430397      0.377874792     -0.572727323       527.747009      -1.51452160    
  0.207707494      0.454816014     -0.572727323       527.747009      -1.51452160    
   7.11574182E-02  0.494910687     -0.490909100       601.922363      -1.51452184    
  0.207707494      0.454816014     -0.490909100       601.922363      -1.51452184    
  0.207707494      0.454816014     -0.572727323       601.922363      -1.51452184    
   7.11574182E-02  0.494910687     -0.572727323       601.922363      -1.51452184    
  -7.11574182E-02  0.494910687     -0.490909100       627.333679      -1.51452112    
   7.11574182E-02  0.494910687     -0.490909100       627.333679      -1.51452112    
   7.11574182E-02  0.494910687     -0.572727323       627.333679      -1.51452112    
  -7.11574182E-02  0.494910687     -0.572727323       627.333679      -1.51452112    
 -0.207707494      0.454816014     -0.490909100       601.922302      -1.51452160    
  -7.11574182E-02  0.494910687     -0.490909100       601.922302      -1.51452160    
  -7.11574182E-02  0.494910687     -0.572727323       601.922302      -1.51452160    
 -0.207707494      0.454816014     -0.572727323       601.922302      -1.51452160    
 -0.327430397      0.377874792     -0.490909100       527.746887      -1.51452160    
 -0.207707494      0.454816014     -0.490909100       527.746887      -1.51452160    
 -0.207707494      0.454816014     -0.572727323       527.746887      -1.51452160    
 -0.327430397      0.377874792     -0.572727323       527.746887      -1.51452160    
 -0.420626789      0.270320386     -0.490909100       410.816650      -1.51452243    
 -0.327430397      0.377874792     -0.490909100       410.816650      -1.51452243    
 -0.327430397      0.377874792     -0.572727323       410.816650      -1.51452243    
 -0.420626789      0.270320386     -0.572727323       410.816650      -1.51452243    
 -0.479746491      0.140866295     -0.490909100       260.603760      -1.51452065    
 -0.420626789      0.270320386     -0.490909100       260.603760      -1.51452065    
 -0.420626789      0.270320386     -0.572727323       260.603760      -1.51452065    
 -0.479746491      0.140866295     -0.572727323       260.603760      -1.51452065    
 -0.500000000       2.84000009E-16 -0.490909100       89.2787323      -1.51452017    
 -0.479746491      0.140866295     -0.490909100       89.2787323      -1.51452017    
 -0.479746491      0.140866295     -0.572727323       89.2787323      -1.51452017    
 -0.500000000       2.84000009E-16 -0.572727323       89.2787323      -1.51452017    
  0.479746491      0.140866295     -0.572727323       87.1410904      -1.51407242    
  0.500000000       0.00000000     -0.572727323       87.1410904      -1.51407242    
  0.500000000       0.00000000     -0.654545426       87.1410904      -1.51407242    
  0.479746491      0.140866295     -0.654545426       87.1410904      -1.51407242    
  0.420626789      0.270320386     -0.572727323       254.362839      -1.51407528    
  0.479746491      0.140866295     -0.572727323       254.362839      -1.51407528    
  0.479746491      0.140866295     -0.654545426       254.362839      -1.51407528    
  0.420626789      0.270320386     -0.654545426       254.362839      -1.51407528    
  0.327430397      0.377874792     -0.572727323       400.977875      -1.51407528    
  0.420626789      0.270320386     -0.572727323       400.977875      -1.51407528    
  0.420626789      0.270320386     -0.654545426       400.977875      -1.51407528    
  0.327430397      0.377874792     -0.654545426       400.977875      -1.51407528    
  0.207707494      0.454816014     -0.572727323       515.107971      -1.51407599    
  0.327430397      0.377874792     -0.572727323       515.107971      -1.51407599    
  0.327430397      0.377874792     -0.654545426       515.107971      -1.51407599    
  0.207707494      0.454816014     -0.654545426       515.107971      -1.51407599    
   7.11574182E-02  0.494910687     -0.572727323       587.507263      -1.51407528    
  0.207707494      0.454816014     -0.572727323       587.507263      -1.51407528    
  0.207707494      0.454816014     -0.654545426       587.507263      -1.51407528    
   7.11574182E-02  0.494910687     -0.654545426       587.507263      -1.51407528    
  -7.11574182E-02  0.494910687     -0.572727323       612.310181      -1.51407552    
   7.11574182E-02  0.494910687     -0.572727323       612.310181      -1.51407552    
   7.11574182E-02  0.494910687     -0.654545426       612.310181      -1.51407552    
  -7.11574182E-02  0.494910687     -0.654545426       612.310181      -1.51407552    
 -0.207707494      0.454816014     -0.572727323       587.507141      -1.51407480    
  -7.11574182E-02  0.494910687     -0.572727323       587.507141      -1.51407480    
  -7.11574182E-02  0.494910687     -0.654545426       587.507141      -1.51407480    
 -0.207707494      0.454816014     -0.654545426       587.507141      -1.51407480    
 -0.327430397      0.377874792     -0.572727323       515.107910      -1.51407540    
 -0.207707494      0.454816014     -0.572727323       515.107910      -1.51407540    
 -0.207707494      0.454816014     -0.654545426       515.107910      -1.51407540    
 -0.327430397      0.377874792     -0.654545426       515.107910      -1.51407540    
 -0.420626789      0.270320386     -0.572727323       400.977997      -1.51407480    
 -0.327430397      0.377874792     -0.572727323       400.977997      -1.51407480    
 -0.327430397      0.377874792     -0.654545426       400.977997      -1.51407480    
 -0.420626789      0.270320386     -0.654545426       400.977997      -1.51407480    
 -0.479746491      0.140866295     -0.572727323       254.362762      -1.51407504    
 -0.420626789      0.270320386     -0.572727323       254.362762      -1.51407504    
 -0.420626789      0.270320386     -0.654545426       254.362762      -1.51407504    