 VARIABLES="X" "Y" "Z" "abs(p) (Pa)" "angle(p) (rad)"
ZONE N=    528,E =     462, F=FEPOINT, ET=QUADRILATERAL
  0.479746491      0.140866295       0.00000000       801.878784       1.64200497    
  0.500000000       0.00000000       0.00000000       801.878784       1.64200497    
  0.500000000       0.00000000      -8.18181783E-02   801.878784       1.64200497    
  0.479746491      0.140866295      -8.18181783E-02   801.878784       1.64200497    
  0.420626789      0.270320386       0.00000000       2340.67017       1.64200330    
  0.479746491      0.140866295       0.00000000       2340.67017       1.64200330    
  0.479746491      0.140866295      -8.18181783E-02   2340.67017       1.64200330    
  0.420626789      0.270320386      -8.18181783E-02   2340.67017       1.64200330    
  0.327430397      0.377874792       0.00000000       3689.83984       1.64200354    
  0.420626789      0.270320386       0.00000000       3689.83984       1.64200354    
  0.420626789      0.270320386      -8.18181783E-02   3689.83984       1.64200354    
  0.327430397      0.377874792      -8.18181783E-02   3689.83984       1.64200354    
  0.207707494      0.454816014       0.00000000       4740.07324       1.64200342    
  0.327430397      0.377874792       0.00000000       4740.07324       1.64200342    
  0.327430397      0.377874792      -8.18181783E-02   4740.07324       1.64200342    
  0.207707494      0.454816014      -8.18181783E-02   4740.07324       1.64200342    
   7.11574182E-02  0.494910687       0.00000000       5406.29785       1.64200377    
  0.207707494      0.454816014       0.00000000       5406.29785       1.64200377    
  0.207707494      0.454816014      -8.18181783E-02   5406.29785       1.64200377    
   7.11574182E-02  0.494910687      -8.18181783E-02   5406.29785       1.64200377    
  -7.11574182E-02  0.494910687       0.00000000       5634.53662       1.64200413    
   7.11574182E-02  0.494910687       0.00000000       5634.53662       1.64200413    
   7.11574182E-02  0.494910687      -8.18181783E-02   5634.53662       1.64200413    
  -7.11574182E-02  0.494910687      -8.18181783E-02   5634.53662       1.64200413    
 -0.207707494      0.454816014       0.00000000       5406.29785       1.64200366    
  -7.11574182E-02  0.494910687       0.00000000       5406.29785       1.64200366    
  -7.11574182E-02  0.494910687      -8.18181783E-02   5406.29785       1.64200366    
 -0.207707494      0.454816014      -8.18181783E-02   5406.29785       1.64200366    
 -0.327430397      0.377874792       0.00000000       4740.07422       1.64200389    
 -0.207707494      0.454816014       0.00000000       4740.07422       1.64200389    
 -0.207707494      0.454816014      -8.18181783E-02   4740.07422       1.64200389    
 -0.327430397      0.377874792      -8.18181783E-02   4740.07422       1.64200389    
 -0.420626789      0.270320386       0.00000000       3689.83862       1.64200354    
 -0.327430397      0.377874792       0.00000000       3689.83862       1.64200354    
 -0.327430397      0.377874792      -8.18181783E-02   3689.83862       1.64200354    
 -0.420626789      0.270320386      -8.18181783E-02   3689.83862       1.64200354    
 -0.479746491      0.140866295       0.00000000       2340.67114       1.64200377    
 -0.420626789      0.270320386       0.00000000       2340.67114       1.64200377    
 -0.420626789      0.270320386      -8.18181783E-02   2340.67114       1.64200377    
 -0.479746491      0.140866295      -8.18181783E-02   2340.67114       1.64200377    
 -0.500000000       2.84000009E-16   0.00000000       801.879272       1.64200699    
 -0.479746491      0.140866295       0.00000000       801.879272       1.64200699    
 -0.479746491      0.140866295      -8.18181783E-02   801.879272       1.64200699    
 -0.500000000       2.84000009E-16  -8.18181783E-02   801.879272       1.64200699    
  0.479746491      0.140866295      -8.18181783E-02   790.342407       1.64197910    
  0.500000000       0.00000000      -8.18181783E-02   790.342407       1.64197910    
  0.500000000       0.00000000     -0.163636401       790.342407       1.64197910    
  0.479746491      0.140866295     -0.163636401       790.342407       1.64197910    
  0.420626789      0.270320386      -8.18181783E-02   2306.98828       1.64197683    
  0.479746491      0.140866295      -8.18181783E-02   2306.98828       1.64197683    
  0.479746491      0.140866295     -0.163636401       2306.98828       1.64197683    
  0.420626789      0.270320386     -0.163636401       2306.98828       1.64197683    
  0.327430397      0.377874792      -8.18181783E-02   3636.73804       1.64197731    
  0.420626789      0.270320386      -8.18181783E-02   3636.73804       1.64197731    
  0.420626789      0.270320386     -0.163636401       3636.73804       1.64197731    
  0.327430397      0.377874792     -0.163636401       3636.73804       1.64197731    
  0.207707494      0.454816014      -8.18181783E-02   4671.86914       1.64197755    
  0.327430397      0.377874792      -8.18181783E-02   4671.86914       1.64197755    
  0.327430397      0.377874792     -0.163636401       4671.86914       1.64197755    
  0.207707494      0.454816014     -0.163636401       4671.86914       1.64197755    
   7.11574182E-02  0.494910687      -8.18181783E-02   5328.50537       1.64197791    
  0.207707494      0.454816014      -8.18181783E-02   5328.50537       1.64197791    
  0.207707494      0.454816014     -0.163636401       5328.50537       1.64197791    
   7.11574182E-02  0.494910687     -0.163636401       5328.50537       1.64197791    
  -7.11574182E-02  0.494910687      -8.18181783E-02   5553.45801       1.64197731    
   7.11574182E-02  0.494910687      -8.18181783E-02   5553.45801       1.64197731    
   7.11574182E-02  0.494910687     -0.163636401       5553.45801       1.64197731    
  -7.11574182E-02  0.494910687     -0.163636401       5553.45801       1.64197731    
 -0.207707494      0.454816014      -8.18181783E-02   5328.50537       1.64197814    
  -7.11574182E-02  0.494910687      -8.18181783E-02   5328.50537       1.64197814    
  -7.11574182E-02  0.494910687     -0.163636401       5328.50537       1.64197814    
 -0.207707494      0.454816014     -0.163636401       5328.50537       1.64197814    
 -0.327430397      0.377874792      -8.18181783E-02   4671.86768       1.64197755    
 -0.207707494      0.454816014      -8.18181783E-02   4671.86768       1.64197755    
 -0.207707494      0.454816014     -0.163636401       4671.86768       1.64197755    
 -0.327430397      0.377874792     -0.163636401       4671.86768       1.64197755    
 -0.420626789      0.270320386      -8.18181783E-02   3636.73755       1.64197755    
 -0.327430397      0.377874792      -8.18181783E-02   3636.73755       1.64197755    
 -0.327430397      0.377874792     -0.163636401       3636.73755       1.64197755    
 -0.420626789      0.270320386     -0.163636401       3636.73755       1.64197755    
 -0.479746491      0.140866295      -8.18181783E-02   2306.98877       1.64197636    
 -0.420626789      0.270320386      -8.18181783E-02   2306.98877       1.64197636    
 -0.420626789      0.270320386     -0.163636401       2306.98877       1.64197636    
 -0.479746491      0.140866295     -0.163636401       2306.98877       1.64197636    
 -0.500000000       2.84000009E-16  -8.18181783E-02   790.343323       1.64197767    
 -0.479746491      0.140866295      -8.18181783E-02   790.343323       1.64197767    
 -0.479746491      0.140866295     -0.163636401       790.343323       1.64197767    
 -0.500000000       2.84000009E-16 -0.163636401       790.343323       1.64197767    
  0.479746491      0.140866295     -0.163636401       777.718628       1.64204907    
  0.500000000       0.00000000     -0.163636401       777.718628       1.64204907    
  0.500000000       0.00000000     -0.245454505       777.718628       1.64204907    
  0.479746491      0.140866295     -0.245454505       777.718628       1.64204907    
  0.420626789      0.270320386     -0.163636401       2270.14941       1.64204860    
  0.479746491      0.140866295     -0.163636401       2270.14941       1.64204860    
  0.479746491      0.140866295     -0.245454505       2270.14941       1.64204860    
  0.420626789      0.270320386     -0.245454505       2270.14941       1.64204860    
  0.327430397      0.377874792     -0.163636401       3578.66504       1.64204860    
  0.420626789      0.270320386     -0.163636401       3578.66504       1.64204860    
  0.420626789      0.270320386     -0.245454505       3578.66504       1.64204860    
  0.327430397      0.377874792     -0.245454505       3578.66504       1.64204860    
  0.207707494      0.454816014     -0.163636401       4597.26270       1.64204812    
  0.327430397      0.377874792     -0.163636401       4597.26270       1.64204812    
  0.327430397      0.377874792     -0.245454505       4597.26270       1.64204812    
  0.207707494      0.454816014     -0.245454505       4597.26270       1.64204812    
   7.11574182E-02  0.494910687     -0.163636401       5243.41064       1.64204776    
  0.207707494      0.454816014     -0.163636401       5243.41064       1.64204776    
  0.207707494      0.454816014     -0.245454505       5243.41064       1.64204776    
   7.11574182E-02  0.494910687     -0.245454505       5243.41064       1.64204776    
  -7.11574182E-02  0.494910687     -0.163636401       5464.77295       1.64204705    
   7.11574182E-02  0.494910687     -0.163636401       5464.77295       1.64204705    
   7.11574182E-02  0.494910687     -0.245454505       5464.77295       1.64204705    
  -7.11574182E-02  0.494910687     -0.245454505       5464.77295       1.64204705    
 -0.207707494      0.454816014     -0.163636401       5243.40869       1.64204764    
  -7.11574182E-02  0.494910687     -0.163636401       5243.40869       1.64204764    
  -7.11574182E-02  0.494910687     -0.245454505       5243.40869       1.64204764    
 -0.207707494      0.454816014     -0.245454505       5243.40869       1.64204764    
 -0.327430397      0.377874792     -0.163636401       4597.26221       1.64204836    
 -0.207707494      0.454816014     -0.163636401       4597.26221       1.64204836    
 -0.207707494      0.454816014     -0.245454505       4597.26221       1.64204836    
 -0.327430397      0.377874792     -0.245454505       4597.26221       1.64204836    
 -0.420626789      0.270320386     -0.163636401       3578.66479       1.64204836    
 -0.327430397      0.377874792     -0.163636401       3578.66479       1.64204836    
 -0.327430397      0.377874792     -0.245454505       3578.66479       1.64204836    
 -0.420626789      0.270320386     -0.245454505       3578.66479       1.64204836    
 -0.479746491      0.140866295     -0.163636401       2270.14868       1.64204884    
 -0.420626789      0.270320386     -0.163636401       2270.14868       1.64204884    
 -0.420626789      0.270320386     -0.245454505       2270.14868       1.64204884    
 -0.479746491      0.140866295     -0.245454505       2270.14868       1.64204884    
 -0.500000000       2.84000009E-16 -0.163636401       777.718628       1.64204907    
 -0.479746491      0.140866295     -0.163636401       777.718628       1.64204907    
 -0.479746491      0.140866295     -0.245454505       777.718628       1.64204907    
 -0.500000000       2.84000009E-16 -0.245454505       777.718628       1.64204907    
  0.479746491      0.140866295     -0.245454505       764.500977       1.64220738    
  0.500000000       0.00000000     -0.245454505       764.500977       1.64220738    
  0.500000000       0.00000000     -0.327272713       764.500977       1.64220738    
  0.479746491      0.140866295     -0.327272713       764.500977       1.64220738    
  0.420626789      0.270320386     -0.245454505       2231.57983       1.64220524    
  0.479746491      0.140866295     -0.245454505       2231.57983       1.64220524    
  0.479746491      0.140866295     -0.327272713       2231.57983       1.64220524    
  0.420626789      0.270320386     -0.327272713       2231.57983       1.64220524    
  0.327430397      0.377874792     -0.245454505       3517.86768       1.64220524    
  0.420626789      0.270320386     -0.245454505       3517.86768       1.64220524    
  0.420626789      0.270320386     -0.327272713       3517.86768       1.64220524    
  0.327430397      0.377874792     -0.327272713       3517.86768       1.64220524    
  0.207707494      0.454816014     -0.245454505       4519.15479       1.64220548    
  0.327430397      0.377874792     -0.245454505       4519.15479       1.64220548    
  0.327430397      0.377874792     -0.327272713       4519.15479       1.64220548    
  0.207707494      0.454816014     -0.327272713       4519.15479       1.64220548    
   7.11574182E-02  0.494910687     -0.245454505       5154.32715       1.64220500    
  0.207707494      0.454816014     -0.245454505       5154.32715       1.64220500    
  0.207707494      0.454816014     -0.327272713       5154.32715       1.64220500    
   7.11574182E-02  0.494910687     -0.327272713       5154.32715       1.64220500    
  -7.11574182E-02  0.494910687     -0.245454505       5371.92871       1.64220488    
   7.11574182E-02  0.494910687     -0.245454505       5371.92871       1.64220488    
   7.11574182E-02  0.494910687     -0.327272713       5371.92871       1.64220488    
  -7.11574182E-02  0.494910687     -0.327272713       5371.92871       1.64220488    
 -0.207707494      0.454816014     -0.245454505       5154.32764       1.64220512    
  -7.11574182E-02  0.494910687     -0.245454505       5154.32764       1.64220512    
  -7.11574182E-02  0.494910687     -0.327272713       5154.32764       1.64220512    
 -0.207707494      0.454816014     -0.327272713       5154.32764       1.64220512    
 -0.327430397      0.377874792     -0.245454505       4519.15479       1.64220512    
 -0.207707494      0.454816014     -0.245454505       4519.15479       1.64220512    
 -0.207707494      0.454816014     -0.327272713       4519.15479       1.64220512    
 -0.327430397      0.377874792     -0.327272713       4519.15479       1.64220512    
 -0.420626789      0.270320386     -0.245454505       3517.86621       1.64220512    
 -0.327430397      0.377874792     -0.245454505       3517.86621       1.64220512    
 -0.327430397      0.377874792     -0.327272713       3517.86621       1.64220512    
 -0.420626789      0.270320386     -0.327272713       3517.86621       1.64220512    
 -0.479746491      0.140866295     -0.245454505       2231.58081       1.64220536    
 -0.420626789      0.270320386     -0.245454505       2231.58081       1.64220536    
 -0.420626789      0.270320386     -0.327272713       2231.58081       1.64220536    
 -0.479746491      0.140866295     -0.327272713       2231.58081       1.64220536    
 -0.500000000       2.84000009E-16 -0.245454505       764.502625       1.64220631    
 -0.479746491      0.140866295     -0.245454505       764.502625       1.64220631    
 -0.479746491      0.140866295     -0.327272713       764.502625       1.64220631    
 -0.500000000       2.84000009E-16 -0.327272713       764.502625       1.64220631    
  0.479746491      0.140866295     -0.327272713       750.424744       1.64247084    
  0.500000000       0.00000000     -0.327272713       750.424744       1.64247084    
  0.500000000       0.00000000     -0.409090906       750.424744       1.64247084    
  0.479746491      0.140866295     -0.409090906       750.424744       1.64247084    
  0.420626789      0.270320386     -0.327272713       2190.46704       1.64246786    
  0.479746491      0.140866295     -0.327272713       2190.46704       1.64246786    
  0.479746491      0.140866295     -0.409090906       2190.46704       1.64246786    
  0.420626789      0.270320386     -0.409090906       2190.46704       1.64246786    
  0.327430397      0.377874792     -0.327272713       3453.05664       1.64246774    
  0.420626789      0.270320386     -0.327272713       3453.05664       1.64246774    
  0.420626789      0.270320386     -0.409090906       3453.05664       1.64246774    
  0.327430397      0.377874792     -0.409090906       3453.05664       1.64246774    
  0.207707494      0.454816014     -0.327272713       4435.89844       1.64246893    
  0.327430397      0.377874792     -0.327272713       4435.89844       1.64246893    
  0.327430397      0.377874792     -0.409090906       4435.89844       1.64246893    
  0.207707494      0.454816014     -0.409090906       4435.89844       1.64246893    
   7.11574182E-02  0.494910687     -0.327272713       5059.37109       1.64246786    
  0.207707494      0.454816014     -0.327272713       5059.37109       1.64246786    
  0.207707494      0.454816014     -0.409090906       5059.37109       1.64246786    
   7.11574182E-02  0.494910687     -0.409090906       5059.37109       1.64246786    
  -7.11574182E-02  0.494910687     -0.327272713       5272.96240       1.64246869    
   7.11574182E-02  0.494910687     -0.327272713       5272.96240       1.64246869    
   7.11574182E-02  0.494910687     -0.409090906       5272.96240       1.64246869    
  -7.11574182E-02  0.494910687     -0.409090906       5272.96240       1.64246869    
 -0.207707494      0.454816014     -0.327272713       5059.37305       1.64246798    
  -7.11574182E-02  0.494910687     -0.327272713       5059.37305       1.64246798    
  -7.11574182E-02  0.494910687     -0.409090906       5059.37305       1.64246798    
 -0.207707494      0.454816014     -0.409090906       5059.37305       1.64246798    
 -0.327430397      0.377874792     -0.327272713       4435.90039       1.64246905    
 -0.207707494      0.454816014     -0.327272713       4435.90039       1.64246905    
 -0.207707494      0.454816014     -0.409090906       4435.90039       1.64246905    
 -0.327430397      0.377874792     -0.409090906       4435.90039       1.64246905    
 -0.420626789      0.270320386     -0.327272713       3453.05664       1.64246786    
 -0.327430397      0.377874792     -0.327272713       3453.05664       1.64246786    
 -0.327430397      0.377874792     -0.409090906       3453.05664       1.64246786    
 -0.420626789      0.270320386     -0.409090906       3453.05664       1.64246786    
 -0.479746491      0.140866295     -0.327272713       2190.46704       1.64246798    
 -0.420626789      0.270320386     -0.327272713       2190.46704       1.64246798    
 -0.420626789      0.270320386     -0.409090906       2190.46704       1.64246798    
 -0.479746491      0.140866295     -0.409090906       2190.46704       1.64246798    
 -0.500000000       2.84000009E-16 -0.327272713       750.425781       1.64247119    
 -0.479746491      0.140866295     -0.327272713       750.425781       1.64247119    
 -0.479746491      0.140866295     -0.409090906       750.425781       1.64247119    
 -0.500000000       2.84000009E-16 -0.409090906       750.425781       1.64247119    
  0.479746491      0.140866295     -0.409090906       735.040283       1.64286256    
  0.500000000       0.00000000     -0.409090906       735.040283       1.64286256    
  0.500000000       0.00000000     -0.490909100       735.040283       1.64286256    
  0.479746491      0.140866295     -0.490909100       735.040283       1.64286256    
  0.420626789      0.270320386     -0.409090906       2145.57617       1.64286423    
  0.479746491      0.140866295     -0.409090906       2145.57617       1.64286423    
  0.479746491      0.140866295     -0.490909100       2145.57617       1.64286423    
  0.420626789      0.270320386     -0.490909100       2145.57617       1.64286423    
  0.327430397      0.377874792     -0.409090906       3382.28784       1.64286661    
  0.420626789      0.270320386     -0.409090906       3382.28784       1.64286661    
  0.420626789      0.270320386     -0.490909100       3382.28784       1.64286661    
  0.327430397      0.377874792     -0.490909100       3382.28784       1.64286661    
  0.207707494      0.454816014     -0.409090906       4344.98926       1.64286470    
  0.327430397      0.377874792     -0.409090906       4344.98926       1.64286470    
  0.327430397      0.377874792     -0.490909100       4344.98926       1.64286470    
  0.207707494      0.454816014     -0.490909100       4344.98926       1.64286470    
   7.11574182E-02  0.494910687     -0.409090906       4955.67969       1.64286518    
  0.207707494      0.454816014     -0.409090906       4955.67969       1.64286518    
  0.207707494      0.454816014     -0.490909100       4955.67969       1.64286518    
   7.11574182E-02  0.494910687     -0.490909100       4955.67969       1.64286518    
  -7.11574182E-02  0.494910687     -0.409090906       5164.89893       1.64286566    
   7.11574182E-02  0.494910687     -0.409090906       5164.89893       1.64286566    
   7.11574182E-02  0.494910687     -0.490909100       5164.89893       1.64286566    
  -7.11574182E-02  0.494910687     -0.490909100       5164.89893       1.64286566    
 -0.207707494      0.454816014     -0.409090906       4955.67773       1.64286506    
  -7.11574182E-02  0.494910687     -0.409090906       4955.67773       1.64286506    
  -7.11574182E-02  0.494910687     -0.490909100       4955.67773       1.64286506    
 -0.207707494      0.454816014     -0.490909100       4955.67773       1.64286506    
 -0.327430397      0.377874792     -0.409090906       4344.98730       1.64286482    
 -0.207707494      0.454816014     -0.409090906       4344.98730       1.64286482    
 -0.207707494      0.454816014     -0.490909100       4344.98730       1.64286482    
 -0.327430397      0.377874792     -0.490909100       4344.98730       1.64286482    
 -0.420626789      0.270320386     -0.409090906       3382.28613       1.64286685    
 -0.327430397      0.377874792     -0.409090906       3382.28613       1.64286685    
 -0.327430397      0.377874792     -0.490909100       3382.28613       1.64286685    
 -0.420626789      0.270320386     -0.490909100       3382.28613       1.64286685    
 -0.479746491      0.140866295     -0.409090906       2145.57666       1.64286411    
 -0.420626789      0.270320386     -0.409090906       2145.57666       1.64286411    
 -0.420626789      0.270320386     -0.490909100       2145.57666       1.64286411    
 -0.479746491      0.140866295     -0.490909100       2145.57666       1.64286411    
 -0.500000000       2.84000009E-16 -0.409090906       735.041016       1.64286387    
 -0.479746491      0.140866295     -0.409090906       735.041016       1.64286387    
 -0.479746491      0.140866295     -0.490909100       735.041016       1.64286387    
 -0.500000000       2.84000009E-16 -0.490909100       735.041016       1.64286387    
  0.479746491      0.140866295     -0.490909100       717.600708       1.64343941    
  0.500000000       0.00000000     -0.490909100       717.600708       1.64343941    
  0.500000000       0.00000000     -0.572727323       717.600708       1.64343941    
  0.479746491      0.140866295     -0.572727323       717.600708       1.64343941    
  0.420626789      0.270320386     -0.490909100       2094.67651       1.64343929    
  0.479746491      0.140866295     -0.490909100       2094.67651       1.64343929    
  0.479746491      0.140866295     -0.572727323       2094.67651       1.64343929    
  0.420626789      0.270320386     -0.572727323       2094.67651       1.64343929    
  0.327430397      0.377874792     -0.490909100       3302.05371       1.64344013    
  0.420626789      0.270320386     -0.490909100       3302.05371       1.64344013    
  0.420626789      0.270320386     -0.572727323       3302.05371       1.64344013    
  0.327430397      0.377874792     -0.572727323       3302.05371       1.64344013    
  0.207707494      0.454816014     -0.490909100       4241.91260       1.64344072    
  0.327430397      0.377874792     -0.490909100       4241.91260       1.64344072    
  0.327430397      0.377874792     -0.572727323       4241.91260       1.64344072    
  0.207707494      0.454816014     -0.572727323       4241.91260       1.64344072    
   7.11574182E-02  0.494910687     -0.490909100       4838.11816       1.64344072    
  0.207707494      0.454816014     -0.490909100       4838.11816       1.64344072    
  0.207707494      0.454816014     -0.572727323       4838.11816       1.64344072    
   7.11574182E-02  0.494910687     -0.572727323       4838.11816       1.64344072    
  -7.11574182E-02  0.494910687     -0.490909100       5042.37109       1.64344072    
   7.11574182E-02  0.494910687     -0.490909100       5042.37109       1.64344072    
   7.11574182E-02  0.494910687     -0.572727323       5042.37109       1.64344072    
  -7.11574182E-02  0.494910687     -0.572727323       5042.37109       1.64344072    
 -0.207707494      0.454816014     -0.490909100       4838.11914       1.64344037    
  -7.11574182E-02  0.494910687     -0.490909100       4838.11914       1.64344037    
  -7.11574182E-02  0.494910687     -0.572727323       4838.11914       1.64344037    
 -0.207707494      0.454816014     -0.572727323       4838.11914       1.64344037    
 -0.327430397      0.377874792     -0.490909100       4241.91504       1.64344072    
 -0.207707494      0.454816014     -0.490909100       4241.91504       1.64344072    
 -0.207707494      0.454816014     -0.572727323       4241.91504       1.64344072    
 -0.327430397      0.377874792     -0.572727323       4241.91504       1.64344072    
 -0.420626789      0.270320386     -0.490909100       3302.05322       1.64344037    
 -0.327430397      0.377874792     -0.490909100       3302.05322       1.64344037    
 -0.327430397      0.377874792     -0.572727323       3302.05322       1.64344037    
 -0.420626789      0.270320386     -0.572727323       3302.05322       1.64344037    
 -0.479746491      0.140866295     -0.490909100       2094.67700       1.64343941    
 -0.420626789      0.270320386     -0.490909100       2094.67700       1.64343941    
 -0.420626789      0.270320386     -0.572727323       2094.67700       1.64343941    
 -0.479746491      0.140866295     -0.572727323       2094.67700       1.64343941    
 -0.500000000       2.84000009E-16 -0.490909100       717.601746       1.64344025    
 -0.479746491      0.140866295     -0.490909100       717.601746       1.64344025    
 -0.479746491      0.140866295     -0.572727323       717.601746       1.64344025    
 -0.500000000       2.84000009E-16 -0.572727323       717.601746       1.64344025    
  0.479746491      0.140866295     -0.572727323       696.939514       1.64426446    
  0.500000000       0.00000000     -0.572727323       696.939514       1.64426446    
  0.500000000       0.00000000     -0.654545426       696.939514       1.64426446    
  0.479746491      0.140866295     -0.654545426       696.939514       1.64426446    
  0.420626789      0.270320386     -0.572727323       2034.35645       1.64426661    
  0.479746491      0.140866295     -0.572727323       2034.35645       1.64426661    
  0.479746491      0.140866295     -0.654545426       2034.35645       1.64426661    
  0.420626789      0.270320386     -0.654545426       2034.35645       1.64426661    
  0.327430397      0.377874792     -0.572727323       3206.96313       1.64426577    
  0.420626789      0.270320386     -0.572727323       3206.96313       1.64426577    
  0.420626789      0.270320386     -0.654545426       3206.96313       1.64426577    
  0.327430397      0.377874792     -0.654545426       3206.96313       1.64426577    
  0.207707494      0.454816014     -0.572727323       4119.75830       1.64426589    
  0.327430397      0.377874792     -0.572727323       4119.75830       1.64426589    
  0.327430397      0.377874792     -0.654545426       4119.75830       1.64426589    
  0.207707494      0.454816014     -0.654545426       4119.75830       1.64426589    
   7.11574182E-02  0.494910687     -0.572727323       4698.79785       1.64426565    
  0.207707494      0.454816014     -0.572727323       4698.79785       1.64426565    
  0.207707494      0.454816014     -0.654545426       4698.79785       1.64426565    
   7.11574182E-02  0.494910687     -0.654545426       4698.79785       1.64426565    
  -7.11574182E-02  0.494910687     -0.572727323       4897.15820       1.64426506    
   7.11574182E-02  0.494910687     -0.572727323       4897.15820       1.64426506    
   7.11574182E-02  0.494910687     -0.654545426       4897.15820       1.64426506    
  -7.11574182E-02  0.494910687     -0.654545426       4897.15820       1.64426506    
 -0.207707494      0.454816014     -0.572727323       4698.79590       1.64426553    
  -7.11574182E-02  0.494910687     -0.572727323       4698.79590       1.64426553    
  -7.11574182E-02  0.494910687     -0.654545426       4698.79590       1.64426553    
 -0.207707494      0.454816014     -0.654545426       4698.79590       1.64426553    
 -0.327430397      0.377874792     -0.572727323       4119.75635       1.64426577    
 -0.207707494      0.454816014     -0.572727323       4119.75635       1.64426577    
 -0.207707494      0.454816014     -0.654545426       4119.75635       1.64426577    
 -0.327430397      0.377874792     -0.654545426       4119.75635       1.64426577    
 -0.420626789      0.270320386     -0.572727323       3206.96313       1.64426637    
 -0.327430397      0.377874792     -0.572727323       3206.96313       1.64426637    
 -0.327430397      0.377874792     -0.654545426       3206.96313       1.64426637    
 -0.420626789      0.270320386     -0.654545426       3206.96313       1.64426637    
 -0.479746491      0.140866295     -0.572727323       2034.35608       1.64426696    
 -0.420626789      0.270320386     -0.572727323       2034.35608       1.64426696    
 -0.420626789      0.270320386     -0.654545426       2034.35608       1.64426696    