 VARIABLES="X" "Y" "Z" "abs(p) (Pa)" "angle(p) (rad)"
ZONE N=    528,E =     462, F=FEPOINT, ET=QUADRILATERAL
  0.479746491      0.140866295       0.00000000       6473.04785       2.65616655    
  0.500000000       0.00000000       0.00000000       6473.04785       2.65616655    
  0.500000000       0.00000000      -8.18181783E-02   6473.04785       2.65616655    
  0.479746491      0.140866295      -8.18181783E-02   6473.04785       2.65616655    
  0.420626789      0.270320386       0.00000000       5750.26660       2.65589428    
  0.479746491      0.140866295       0.00000000       5750.26660       2.65589428    
  0.479746491      0.140866295      -8.18181783E-02   5750.26660       2.65589428    
  0.420626789      0.270320386      -8.18181783E-02   5750.26660       2.65589428    
  0.327430397      0.377874792       0.00000000       4408.34229       2.67427063    
  0.420626789      0.270320386       0.00000000       4408.34229       2.67427063    
  0.420626789      0.270320386      -8.18181783E-02   4408.34229       2.67427063    
  0.327430397      0.377874792      -8.18181783E-02   4408.34229       2.67427063    
  0.207707494      0.454816014       0.00000000       2671.17773       2.79480767    
  0.327430397      0.377874792       0.00000000       2671.17773       2.79480767    
  0.327430397      0.377874792      -8.18181783E-02   2671.17773       2.79480767    
  0.207707494      0.454816014      -8.18181783E-02   2671.17773       2.79480767    
   7.11574182E-02  0.494910687       0.00000000       1211.53027      -2.70913410    
  0.207707494      0.454816014       0.00000000       1211.53027      -2.70913410    
  0.207707494      0.454816014      -8.18181783E-02   1211.53027      -2.70913410    
   7.11574182E-02  0.494910687      -8.18181783E-02   1211.53027      -2.70913410    
  -7.11574182E-02  0.494910687       0.00000000       2133.19873      -1.54925966    
   7.11574182E-02  0.494910687       0.00000000       2133.19873      -1.54925966    
   7.11574182E-02  0.494910687      -8.18181783E-02   2133.19873      -1.54925966    
  -7.11574182E-02  0.494910687      -8.18181783E-02   2133.19873      -1.54925966    
 -0.207707494      0.454816014       0.00000000       3852.58667      -1.36746454    
  -7.11574182E-02  0.494910687       0.00000000       3852.58667      -1.36746454    
  -7.11574182E-02  0.494910687      -8.18181783E-02   3852.58667      -1.36746454    
 -0.207707494      0.454816014      -8.18181783E-02   3852.58667      -1.36746454    
 -0.327430397      0.377874792       0.00000000       5343.28760      -1.36507034    
 -0.207707494      0.454816014       0.00000000       5343.28760      -1.36507034    
 -0.207707494      0.454816014      -8.18181783E-02   5343.28760      -1.36507034    
 -0.327430397      0.377874792      -8.18181783E-02   5343.28760      -1.36507034    
 -0.420626789      0.270320386       0.00000000       6458.05273      -1.39937317    
 -0.327430397      0.377874792       0.00000000       6458.05273      -1.39937317    
 -0.327430397      0.377874792      -8.18181783E-02   6458.05273      -1.39937317    
 -0.420626789      0.270320386      -8.18181783E-02   6458.05273      -1.39937317    
 -0.479746491      0.140866295       0.00000000       7178.96436      -1.43420339    
 -0.420626789      0.270320386       0.00000000       7178.96436      -1.43420339    
 -0.420626789      0.270320386      -8.18181783E-02   7178.96436      -1.43420339    
 -0.479746491      0.140866295      -8.18181783E-02   7178.96436      -1.43420339    
 -0.500000000       2.84000009E-16   0.00000000       7528.48682      -1.45472586    
 -0.479746491      0.140866295       0.00000000       7528.48682      -1.45472586    
 -0.479746491      0.140866295      -8.18181783E-02   7528.48682      -1.45472586    
 -0.500000000       2.84000009E-16  -8.18181783E-02   7528.48682      -1.45472586    
  0.479746491      0.140866295      -8.18181783E-02   5873.31201       2.65608764    
  0.500000000       0.00000000      -8.18181783E-02   5873.31201       2.65608764    
  0.500000000       0.00000000     -0.163636401       5873.31201       2.65608764    
  0.479746491      0.140866295     -0.163636401       5873.31201       2.65608764    
  0.420626789      0.270320386      -8.18181783E-02   5217.39258       2.65568781    
  0.479746491      0.140866295      -8.18181783E-02   5217.39258       2.65568781    
  0.479746491      0.140866295     -0.163636401       5217.39258       2.65568781    
  0.420626789      0.270320386     -0.163636401       5217.39258       2.65568781    
  0.327430397      0.377874792      -8.18181783E-02   3999.54688       2.67376232    
  0.420626789      0.270320386      -8.18181783E-02   3999.54688       2.67376232    
  0.420626789      0.270320386     -0.163636401       3999.54688       2.67376232    
  0.327430397      0.377874792     -0.163636401       3999.54688       2.67376232    
  0.207707494      0.454816014      -8.18181783E-02   2422.70654       2.79363251    
  0.327430397      0.377874792      -8.18181783E-02   2422.70654       2.79363251    
  0.327430397      0.377874792     -0.163636401       2422.70654       2.79363251    
  0.207707494      0.454816014     -0.163636401       2422.70654       2.79363251    
   7.11574182E-02  0.494910687      -8.18181783E-02   1096.12073      -2.71056533    
  0.207707494      0.454816014      -8.18181783E-02   1096.12073      -2.71056533    
  0.207707494      0.454816014     -0.163636401       1096.12073      -2.71056533    
   7.11574182E-02  0.494910687     -0.163636401       1096.12073      -2.71056533    
  -7.11574182E-02  0.494910687      -8.18181783E-02   1932.68799      -1.54825580    
   7.11574182E-02  0.494910687      -8.18181783E-02   1932.68799      -1.54825580    
   7.11574182E-02  0.494910687     -0.163636401       1932.68799      -1.54825580    
  -7.11574182E-02  0.494910687     -0.163636401       1932.68799      -1.54825580    
 -0.207707494      0.454816014      -8.18181783E-02   3492.80054      -1.36706471    
  -7.11574182E-02  0.494910687      -8.18181783E-02   3492.80054      -1.36706471    
  -7.11574182E-02  0.494910687     -0.163636401       3492.80054      -1.36706471    
 -0.207707494      0.454816014     -0.163636401       3492.80054      -1.36706471    
 -0.327430397      0.377874792      -8.18181783E-02   4844.67627      -1.36509216    
 -0.207707494      0.454816014      -8.18181783E-02   4844.67627      -1.36509216    
 -0.207707494      0.454816014     -0.163636401       4844.67627      -1.36509216    
 -0.327430397      0.377874792     -0.163636401       4844.67627      -1.36509216    
 -0.420626789      0.270320386      -8.18181783E-02   5855.20410      -1.39968550    
 -0.327430397      0.377874792      -8.18181783E-02   5855.20410      -1.39968550    
 -0.327430397      0.377874792     -0.163636401       5855.20410      -1.39968550    
 -0.420626789      0.270320386     -0.163636401       5855.20410      -1.39968550    
 -0.479746491      0.140866295      -8.18181783E-02   6508.47559      -1.43470895    
 -0.420626789      0.270320386      -8.18181783E-02   6508.47559      -1.43470895    
 -0.420626789      0.270320386     -0.163636401       6508.47559      -1.43470895    
 -0.479746491      0.140866295     -0.163636401       6508.47559      -1.43470895    
 -0.500000000       2.84000009E-16  -8.18181783E-02   6825.11426      -1.45532978    
 -0.479746491      0.140866295      -8.18181783E-02   6825.11426      -1.45532978    
 -0.479746491      0.140866295     -0.163636401       6825.11426      -1.45532978    
 -0.500000000       2.84000009E-16 -0.163636401       6825.11426      -1.45532978    
  0.479746491      0.140866295     -0.163636401       5334.94727       2.65742540    
  0.500000000       0.00000000     -0.163636401       5334.94727       2.65742540    
  0.500000000       0.00000000     -0.245454505       5334.94727       2.65742540    
  0.479746491      0.140866295     -0.245454505       5334.94727       2.65742540    
  0.420626789      0.270320386     -0.163636401       4739.11963       2.65709329    
  0.479746491      0.140866295     -0.163636401       4739.11963       2.65709329    
  0.479746491      0.140866295     -0.245454505       4739.11963       2.65709329    
  0.420626789      0.270320386     -0.245454505       4739.11963       2.65709329    
  0.327430397      0.377874792     -0.163636401       3632.93921       2.67536497    
  0.420626789      0.270320386     -0.163636401       3632.93921       2.67536497    
  0.420626789      0.270320386     -0.245454505       3632.93921       2.67536497    
  0.327430397      0.377874792     -0.245454505       3632.93921       2.67536497    
  0.207707494      0.454816014     -0.163636401       2201.07251       2.79580545    
  0.327430397      0.377874792     -0.163636401       2201.07251       2.79580545    
  0.327430397      0.377874792     -0.245454505       2201.07251       2.79580545    
  0.207707494      0.454816014     -0.245454505       2201.07251       2.79580545    
   7.11574182E-02  0.494910687     -0.163636401       998.428894      -2.70799828    
  0.207707494      0.454816014     -0.163636401       998.428894      -2.70799828    
  0.207707494      0.454816014     -0.245454505       998.428894      -2.70799828    
   7.11574182E-02  0.494910687     -0.245454505       998.428894      -2.70799828    
  -7.11574182E-02  0.494910687     -0.163636401       1758.17603      -1.54885972    
   7.11574182E-02  0.494910687     -0.163636401       1758.17603      -1.54885972    
   7.11574182E-02  0.494910687     -0.245454505       1758.17603      -1.54885972    
  -7.11574182E-02  0.494910687     -0.245454505       1758.17603      -1.54885972    
 -0.207707494      0.454816014     -0.163636401       3174.30762      -1.36741471    
  -7.11574182E-02  0.494910687     -0.163636401       3174.30762      -1.36741471    
  -7.11574182E-02  0.494910687     -0.245454505       3174.30762      -1.36741471    
 -0.207707494      0.454816014     -0.245454505       3174.30762      -1.36741471    
 -0.327430397      0.377874792     -0.163636401       4401.46924      -1.36529279    
 -0.207707494      0.454816014     -0.163636401       4401.46924      -1.36529279    
 -0.207707494      0.454816014     -0.245454505       4401.46924      -1.36529279    
 -0.327430397      0.377874792     -0.245454505       4401.46924      -1.36529279    
 -0.420626789      0.270320386     -0.163636401       5318.59961      -1.39982855    
 -0.327430397      0.377874792     -0.163636401       5318.59961      -1.39982855    
 -0.327430397      0.377874792     -0.245454505       5318.59961      -1.39982855    
 -0.420626789      0.270320386     -0.245454505       5318.59961      -1.39982855    
 -0.479746491      0.140866295     -0.163636401       5911.34570      -1.43483412    
 -0.420626789      0.270320386     -0.163636401       5911.34570      -1.43483412    
 -0.420626789      0.270320386     -0.245454505       5911.34570      -1.43483412    
 -0.479746491      0.140866295     -0.245454505       5911.34570      -1.43483412    
 -0.500000000       2.84000009E-16 -0.163636401       6198.58594      -1.45545113    
 -0.479746491      0.140866295     -0.163636401       6198.58594      -1.45545113    
 -0.479746491      0.140866295     -0.245454505       6198.58594      -1.45545113    
 -0.500000000       2.84000009E-16 -0.245454505       6198.58594      -1.45545113    
  0.479746491      0.140866295     -0.245454505       4859.95361       2.65996885    
  0.500000000       0.00000000     -0.245454505       4859.95361       2.65996885    
  0.500000000       0.00000000     -0.327272713       4859.95361       2.65996885    
  0.479746491      0.140866295     -0.327272713       4859.95361       2.65996885    
  0.420626789      0.270320386     -0.245454505       4317.17822       2.65980601    
  0.479746491      0.140866295     -0.245454505       4317.17822       2.65980601    
  0.479746491      0.140866295     -0.327272713       4317.17822       2.65980601    
  0.420626789      0.270320386     -0.327272713       4317.17822       2.65980601    
  0.327430397      0.377874792     -0.245454505       3309.64258       2.67854738    
  0.420626789      0.270320386     -0.245454505       3309.64258       2.67854738    
  0.420626789      0.270320386     -0.327272713       3309.64258       2.67854738    
  0.327430397      0.377874792     -0.327272713       3309.64258       2.67854738    
  0.207707494      0.454816014     -0.245454505       2006.21912       2.80027628    
  0.327430397      0.377874792     -0.245454505       2006.21912       2.80027628    
  0.327430397      0.377874792     -0.327272713       2006.21912       2.80027628    
  0.207707494      0.454816014     -0.327272713       2006.21912       2.80027628    
   7.11574182E-02  0.494910687     -0.245454505       915.250732      -2.70280647    
  0.207707494      0.454816014     -0.245454505       915.250732      -2.70280647    
  0.207707494      0.454816014     -0.327272713       915.250732      -2.70280647    
   7.11574182E-02  0.494910687     -0.327272713       915.250732      -2.70280647    
  -7.11574182E-02  0.494910687     -0.245454505       1606.94666      -1.55037606    
   7.11574182E-02  0.494910687     -0.245454505       1606.94666      -1.55037606    
   7.11574182E-02  0.494910687     -0.327272713       1606.94666      -1.55037606    
  -7.11574182E-02  0.494910687     -0.327272713       1606.94666      -1.55037606    
 -0.207707494      0.454816014     -0.245454505       2895.31030      -1.36823452    
  -7.11574182E-02  0.494910687     -0.245454505       2895.31030      -1.36823452    
  -7.11574182E-02  0.494910687     -0.327272713       2895.31030      -1.36823452    
 -0.207707494      0.454816014     -0.327272713       2895.31030      -1.36823452    
 -0.327430397      0.377874792     -0.245454505       4012.04395      -1.36568213    
 -0.207707494      0.454816014     -0.245454505       4012.04395      -1.36568213    
 -0.207707494      0.454816014     -0.327272713       4012.04395      -1.36568213    
 -0.327430397      0.377874792     -0.327272713       4012.04395      -1.36568213    
 -0.420626789      0.270320386     -0.245454505       4846.45312      -1.40000594    
 -0.327430397      0.377874792     -0.245454505       4846.45312      -1.40000594    
 -0.327430397      0.377874792     -0.327272713       4846.45312      -1.40000594    
 -0.420626789      0.270320386     -0.327272713       4846.45312      -1.40000594    
 -0.479746491      0.140866295     -0.245454505       5385.53809      -1.43490708    
 -0.420626789      0.270320386     -0.245454505       5385.53809      -1.43490708    
 -0.420626789      0.270320386     -0.327272713       5385.53809      -1.43490708    
 -0.479746491      0.140866295     -0.327272713       5385.53809      -1.43490708    
 -0.500000000       2.84000009E-16 -0.245454505       5646.69482      -1.45548117    
 -0.479746491      0.140866295     -0.245454505       5646.69482      -1.45548117    
 -0.479746491      0.140866295     -0.327272713       5646.69482      -1.45548117    
 -0.500000000       2.84000009E-16 -0.327272713       5646.69482      -1.45548117    
  0.479746491      0.140866295     -0.327272713       4442.82275       2.66400313    
  0.500000000       0.00000000     -0.327272713       4442.82275       2.66400313    
  0.500000000       0.00000000     -0.409090906       4442.82275       2.66400313    
  0.479746491      0.140866295     -0.409090906       4442.82275       2.66400313    
  0.420626789      0.270320386     -0.327272713       3946.71118       2.66413808    
  0.479746491      0.140866295     -0.327272713       3946.71118       2.66413808    
  0.479746491      0.140866295     -0.409090906       3946.71118       2.66413808    
  0.420626789      0.270320386     -0.409090906       3946.71118       2.66413808    
  0.327430397      0.377874792     -0.327272713       3026.03125       2.68369174    
  0.420626789      0.270320386     -0.327272713       3026.03125       2.68369174    
  0.420626789      0.270320386     -0.409090906       3026.03125       2.68369174    
  0.327430397      0.377874792     -0.409090906       3026.03125       2.68369174    
  0.207707494      0.454816014     -0.327272713       1836.09131       2.80758309    
  0.327430397      0.377874792     -0.327272713       1836.09131       2.80758309    
  0.327430397      0.377874792     -0.409090906       1836.09131       2.80758309    
  0.207707494      0.454816014     -0.409090906       1836.09131       2.80758309    
   7.11574182E-02  0.494910687     -0.327272713       845.727356      -2.69470453    
  0.207707494      0.454816014     -0.327272713       845.727356      -2.69470453    
  0.207707494      0.454816014     -0.409090906       845.727356      -2.69470453    
   7.11574182E-02  0.494910687     -0.409090906       845.727356      -2.69470453    
  -7.11574182E-02  0.494910687     -0.327272713       1477.00708      -1.55319571    
   7.11574182E-02  0.494910687     -0.327272713       1477.00708      -1.55319571    
   7.11574182E-02  0.494910687     -0.409090906       1477.00708      -1.55319571    
  -7.11574182E-02  0.494910687     -0.409090906       1477.00708      -1.55319571    
 -0.207707494      0.454816014     -0.327272713       2652.24487      -1.36973011    
  -7.11574182E-02  0.494910687     -0.327272713       2652.24487      -1.36973011    
  -7.11574182E-02  0.494910687     -0.409090906       2652.24487      -1.36973011    
 -0.207707494      0.454816014     -0.409090906       2652.24487      -1.36973011    
 -0.327430397      0.377874792     -0.327272713       3671.51416      -1.36636972    
 -0.207707494      0.454816014     -0.327272713       3671.51416      -1.36636972    
 -0.207707494      0.454816014     -0.409090906       3671.51416      -1.36636972    
 -0.327430397      0.377874792     -0.409090906       3671.51416      -1.36636972    
 -0.420626789      0.270320386     -0.327272713       4432.88965      -1.40027273    
 -0.327430397      0.377874792     -0.327272713       4432.88965      -1.40027273    
 -0.327430397      0.377874792     -0.409090906       4432.88965      -1.40027273    
 -0.420626789      0.270320386     -0.409090906       4432.88965      -1.40027273    
 -0.479746491      0.140866295     -0.327272713       4924.54541      -1.43495250    
 -0.420626789      0.270320386     -0.327272713       4924.54541      -1.43495250    
 -0.420626789      0.270320386     -0.409090906       4924.54541      -1.43495250    
 -0.479746491      0.140866295     -0.409090906       4924.54541      -1.43495250    
 -0.500000000       2.84000009E-16 -0.327272713       5162.62500      -1.45542932    
 -0.479746491      0.140866295     -0.327272713       5162.62500      -1.45542932    
 -0.479746491      0.140866295     -0.409090906       5162.62500      -1.45542932    
 -0.500000000       2.84000009E-16 -0.409090906       5162.62500      -1.45542932    
  0.479746491      0.140866295     -0.409090906       4076.94092       2.67001581    
  0.500000000       0.00000000     -0.409090906       4076.94092       2.67001581    
  0.500000000       0.00000000     -0.490909100       4076.94092       2.67001581    
  0.479746491      0.140866295     -0.490909100       4076.94092       2.67001581    
  0.420626789      0.270320386     -0.409090906       3621.88794       2.67062879    
  0.479746491      0.140866295     -0.409090906       3621.88794       2.67062879    
  0.479746491      0.140866295     -0.490909100       3621.88794       2.67062879    
  0.420626789      0.270320386     -0.490909100       3621.88794       2.67062879    
  0.327430397      0.377874792     -0.409090906       2777.72388       2.69147086    
  0.420626789      0.270320386     -0.409090906       2777.72388       2.69147086    
  0.420626789      0.270320386     -0.490909100       2777.72388       2.69147086    
  0.327430397      0.377874792     -0.490909100       2777.72388       2.69147086    
  0.207707494      0.454816014     -0.409090906       1688.25256       2.81870961    
  0.327430397      0.377874792     -0.409090906       1688.25256       2.81870961    
  0.327430397      0.377874792     -0.490909100       1688.25256       2.81870961    
  0.207707494      0.454816014     -0.490909100       1688.25256       2.81870961    
   7.11574182E-02  0.494910687     -0.409090906       789.261414      -2.68292856    
  0.207707494      0.454816014     -0.409090906       789.261414      -2.68292856    
  0.207707494      0.454816014     -0.490909100       789.261414      -2.68292856    
   7.11574182E-02  0.494910687     -0.490909100       789.261414      -2.68292856    
  -7.11574182E-02  0.494910687     -0.409090906       1366.63135      -1.55781913    
   7.11574182E-02  0.494910687     -0.409090906       1366.63135      -1.55781913    
   7.11574182E-02  0.494910687     -0.490909100       1366.63135      -1.55781913    
  -7.11574182E-02  0.494910687     -0.490909100       1366.63135      -1.55781913    
 -0.207707494      0.454816014     -0.409090906       2441.49146      -1.37215710    
  -7.11574182E-02  0.494910687     -0.409090906       2441.49146      -1.37215710    
  -7.11574182E-02  0.494910687     -0.490909100       2441.49146      -1.37215710    
 -0.207707494      0.454816014     -0.490909100       2441.49146      -1.37215710    
 -0.327430397      0.377874792     -0.409090906       3374.69189      -1.36744785    
 -0.207707494      0.454816014     -0.409090906       3374.69189      -1.36744785    
 -0.207707494      0.454816014     -0.490909100       3374.69189      -1.36744785    
 -0.327430397      0.377874792     -0.490909100       3374.69189      -1.36744785    
 -0.420626789      0.270320386     -0.409090906       4071.57031      -1.40062284    
 -0.327430397      0.377874792     -0.409090906       4071.57031      -1.40062284    
 -0.327430397      0.377874792     -0.490909100       4071.57031      -1.40062284    
 -0.420626789      0.270320386     -0.490909100       4071.57031      -1.40062284    
 -0.479746491      0.140866295     -0.409090906       4521.28809      -1.43490326    
 -0.420626789      0.270320386     -0.409090906       4521.28809      -1.43490326    
 -0.420626789      0.270320386     -0.490909100       4521.28809      -1.43490326    
 -0.479746491      0.140866295     -0.490909100       4521.28809      -1.43490326    
 -0.500000000       2.84000009E-16 -0.409090906       4738.92236      -1.45519888    
 -0.479746491      0.140866295     -0.409090906       4738.92236      -1.45519888    
 -0.479746491      0.140866295     -0.490909100       4738.92236      -1.45519888    
 -0.500000000       2.84000009E-16 -0.490909100       4738.92236      -1.45519888    
  0.479746491      0.140866295     -0.490909100       3755.01245       2.67880845    
  0.500000000       0.00000000     -0.490909100       3755.01245       2.67880845    
  0.500000000       0.00000000     -0.572727323       3755.01245       2.67880845    
  0.479746491      0.140866295     -0.572727323       3755.01245       2.67880845    
  0.420626789      0.270320386     -0.490909100       3336.32886       2.68017936    
  0.479746491      0.140866295     -0.490909100       3336.32886       2.68017936    
  0.479746491      0.140866295     -0.572727323       3336.32886       2.68017936    
  0.420626789      0.270320386     -0.572727323       3336.32886       2.68017936    
  0.327430397      0.377874792     -0.490909100       2560.07031       2.70303535    
  0.420626789      0.270320386     -0.490909100       2560.07031       2.70303535    
  0.420626789      0.270320386     -0.572727323       2560.07031       2.70303535    
  0.327430397      0.377874792     -0.572727323       2560.07031       2.70303535    
  0.207707494      0.454816014     -0.490909100       1560.45398       2.83535409    
  0.327430397      0.377874792     -0.490909100       1560.45398       2.83535409    
  0.327430397      0.377874792     -0.572727323       1560.45398       2.83535409    
  0.207707494      0.454816014     -0.572727323       1560.45398       2.83535409    
   7.11574182E-02  0.494910687     -0.490909100       746.075134      -2.66648316    
  0.207707494      0.454816014     -0.490909100       746.075134      -2.66648316    
  0.207707494      0.454816014     -0.572727323       746.075134      -2.66648316    
   7.11574182E-02  0.494910687     -0.572727323       746.075134      -2.66648316    
  -7.11574182E-02  0.494910687     -0.490909100       1274.35193      -1.56533504    
   7.11574182E-02  0.494910687     -0.490909100       1274.35193      -1.56533504    
   7.11574182E-02  0.494910687     -0.572727323       1274.35193      -1.56533504    
  -7.11574182E-02  0.494910687     -0.572727323       1274.35193      -1.56533504    
 -0.207707494      0.454816014     -0.490909100       2259.23145      -1.37608469    
  -7.11574182E-02  0.494910687     -0.490909100       2259.23145      -1.37608469    
  -7.11574182E-02  0.494910687     -0.572727323       2259.23145      -1.37608469    
 -0.207707494      0.454816014     -0.572727323       2259.23145      -1.37608469    
 -0.327430397      0.377874792     -0.490909100       3115.95020      -1.36915433    
 -0.207707494      0.454816014     -0.490909100       3115.95020      -1.36915433    
 -0.207707494      0.454816014     -0.572727323       3115.95020      -1.36915433    
 -0.327430397      0.377874792     -0.572727323       3115.95020      -1.36915433    
 -0.420626789      0.270320386     -0.490909100       3755.58691      -1.40109205    
 -0.327430397      0.377874792     -0.490909100       3755.58691      -1.40109205    
 -0.327430397      0.377874792     -0.572727323       3755.58691      -1.40109205    
 -0.420626789      0.270320386     -0.572727323       3755.58691      -1.40109205    
 -0.479746491      0.140866295     -0.490909100       4168.03906      -1.43467164    
 -0.420626789      0.270320386     -0.490909100       4168.03906      -1.43467164    
 -0.420626789      0.270320386     -0.572727323       4168.03906      -1.43467164    
 -0.479746491      0.140866295     -0.572727323       4168.03906      -1.43467164    
 -0.500000000       2.84000009E-16 -0.490909100       4367.49023      -1.45464206    
 -0.479746491      0.140866295     -0.490909100       4367.49023      -1.45464206    
 -0.479746491      0.140866295     -0.572727323       4367.49023      -1.45464206    
 -0.500000000       2.84000009E-16 -0.572727323       4367.49023      -1.45464206    
  0.479746491      0.140866295     -0.572727323       3468.66406       2.69177103    
  0.500000000       0.00000000     -0.572727323       3468.66406       2.69177103    
  0.500000000       0.00000000     -0.654545426       3468.66406       2.69177103    
  0.479746491      0.140866295     -0.654545426       3468.66406       2.69177103    
  0.420626789      0.270320386     -0.572727323       3082.78857       2.69435501    
  0.479746491      0.140866295     -0.572727323       3082.78857       2.69435501    
  0.479746491      0.140866295     -0.654545426       3082.78857       2.69435501    
  0.420626789      0.270320386     -0.654545426       3082.78857       2.69435501    
  0.327430397      0.377874792     -0.572727323       2367.98047       2.72038054    
  0.420626789      0.270320386     -0.572727323       2367.98047       2.72038054    
  0.420626789      0.270320386     -0.654545426       2367.98047       2.72038054    
  0.327430397      0.377874792     -0.654545426       2367.98047       2.72038054    
  0.207707494      0.454816014     -0.572727323       1450.68579       2.86038256    
  0.327430397      0.377874792     -0.572727323       1450.68579       2.86038256    
  0.327430397      0.377874792     -0.654545426       1450.68579       2.86038256    
  0.207707494      0.454816014     -0.654545426       1450.68579       2.86038256    
   7.11574182E-02  0.494910687     -0.572727323       717.421753      -2.64409041    
  0.207707494      0.454816014     -0.572727323       717.421753      -2.64409041    
  0.207707494      0.454816014     -0.654545426       717.421753      -2.64409041    
   7.11574182E-02  0.494910687     -0.654545426       717.421753      -2.64409041    
  -7.11574182E-02  0.494910687     -0.572727323       1199.05444      -1.57765007    
   7.11574182E-02  0.494910687     -0.572727323       1199.05444      -1.57765007    
   7.11574182E-02  0.494910687     -0.654545426       1199.05444      -1.57765007    
  -7.11574182E-02  0.494910687     -0.654545426       1199.05444      -1.57765007    
 -0.207707494      0.454816014     -0.572727323       2101.30347      -1.38255084    
  -7.11574182E-02  0.494910687     -0.572727323       2101.30347      -1.38255084    
  -7.11574182E-02  0.494910687     -0.654545426       2101.30347      -1.38255084    
 -0.207707494      0.454816014     -0.654545426       2101.30347      -1.38255084    
 -0.327430397      0.377874792     -0.572727323       2888.89233      -1.37194777    
 -0.207707494      0.454816014     -0.572727323       2888.89233      -1.37194777    
 -0.207707494      0.454816014     -0.654545426       2888.89233      -1.37194777    
 -0.327430397      0.377874792     -0.654545426       2888.89233      -1.37194777    
 -0.420626789      0.270320386     -0.572727323       3476.98486      -1.40178633    
 -0.327430397      0.377874792     -0.572727323       3476.98486      -1.40178633    
 -0.327430397      0.377874792     -0.654545426       3476.98486      -1.40178633    
 -0.420626789      0.270320386     -0.654545426       3476.98486      -1.40178633    
 -0.479746491      0.140866295     -0.572727323       3855.89355      -1.43414819    
 -0.420626789      0.270320386     -0.572727323       3855.89355      -1.43414819    
 -0.420626789      0.270320386     -0.654545426       3855.89355      -1.43414819    