 VARIABLES="X" "Y" "Z" "abs(p) (Pa)" "angle(p) (rad)"
ZONE N=    528,E =     462, F=FEPOINT, ET=QUADRILATERAL
  0.479746491      0.140866295       0.00000000       4162.16602      -1.52916992    
  0.500000000       0.00000000       0.00000000       4162.16602      -1.52916992    
  0.500000000       0.00000000      -8.18181783E-02   4162.16602      -1.52916992    
  0.479746491      0.140866295      -8.18181783E-02   4162.16602      -1.52916992    
  0.420626789      0.270320386       0.00000000       3824.97290      -1.52916992    
  0.479746491      0.140866295       0.00000000       3824.97290      -1.52916992    
  0.479746491      0.140866295      -8.18181783E-02   3824.97290      -1.52916992    
  0.420626789      0.270320386      -8.18181783E-02   3824.97290      -1.52916992    
  0.327430397      0.377874792       0.00000000       3177.90356      -1.52917004    
  0.420626789      0.270320386       0.00000000       3177.90356      -1.52917004    
  0.420626789      0.270320386      -8.18181783E-02   3177.90356      -1.52917004    
  0.327430397      0.377874792      -8.18181783E-02   3177.90356      -1.52917004    
  0.207707494      0.454816014       0.00000000       2273.37476      -1.52917004    
  0.327430397      0.377874792       0.00000000       2273.37476      -1.52917004    
  0.327430397      0.377874792      -8.18181783E-02   2273.37476      -1.52917004    
  0.207707494      0.454816014      -8.18181783E-02   2273.37476      -1.52917004    
   7.11574182E-02  0.494910687       0.00000000       1184.67603      -1.52917016    
  0.207707494      0.454816014       0.00000000       1184.67603      -1.52917016    
  0.207707494      0.454816014      -8.18181783E-02   1184.67603      -1.52917016    
   7.11574182E-02  0.494910687      -8.18181783E-02   1184.67603      -1.52917016    
  -7.11574182E-02  0.494910687       0.00000000       4.69406776E-04   2.49265122    
   7.11574182E-02  0.494910687       0.00000000       4.69406776E-04   2.49265122    
   7.11574182E-02  0.494910687      -8.18181783E-02   4.69406776E-04   2.49265122    
  -7.11574182E-02  0.494910687      -8.18181783E-02   4.69406776E-04   2.49265122    
 -0.207707494      0.454816014       0.00000000       1184.67651       1.61242330    
  -7.11574182E-02  0.494910687       0.00000000       1184.67651       1.61242330    
  -7.11574182E-02  0.494910687      -8.18181783E-02   1184.67651       1.61242330    
 -0.207707494      0.454816014      -8.18181783E-02   1184.67651       1.61242330    
 -0.327430397      0.377874792       0.00000000       2273.37573       1.61242294    
 -0.207707494      0.454816014       0.00000000       2273.37573       1.61242294    
 -0.207707494      0.454816014      -8.18181783E-02   2273.37573       1.61242294    
 -0.327430397      0.377874792      -8.18181783E-02   2273.37573       1.61242294    
 -0.420626789      0.270320386       0.00000000       3177.90430       1.61242294    
 -0.327430397      0.377874792       0.00000000       3177.90430       1.61242294    
 -0.327430397      0.377874792      -8.18181783E-02   3177.90430       1.61242294    
 -0.420626789      0.270320386      -8.18181783E-02   3177.90430       1.61242294    
 -0.479746491      0.140866295       0.00000000       3824.97217       1.61242294    
 -0.420626789      0.270320386       0.00000000       3824.97217       1.61242294    
 -0.420626789      0.270320386      -8.18181783E-02   3824.97217       1.61242294    
 -0.479746491      0.140866295      -8.18181783E-02   3824.97217       1.61242294    
 -0.500000000       2.84000009E-16   0.00000000       4162.16699       1.61242294    
 -0.479746491      0.140866295       0.00000000       4162.16699       1.61242294    
 -0.479746491      0.140866295      -8.18181783E-02   4162.16699       1.61242294    
 -0.500000000       2.84000009E-16  -8.18181783E-02   4162.16699       1.61242294    
  0.479746491      0.140866295      -8.18181783E-02   4121.33252      -1.52913439    
  0.500000000       0.00000000      -8.18181783E-02   4121.33252      -1.52913439    
  0.500000000       0.00000000     -0.163636401       4121.33252      -1.52913439    
  0.479746491      0.140866295     -0.163636401       4121.33252      -1.52913439    
  0.420626789      0.270320386      -8.18181783E-02   3787.44604      -1.52913439    
  0.479746491      0.140866295      -8.18181783E-02   3787.44604      -1.52913439    
  0.479746491      0.140866295     -0.163636401       3787.44604      -1.52913439    
  0.420626789      0.270320386     -0.163636401       3787.44604      -1.52913439    
  0.327430397      0.377874792      -8.18181783E-02   3146.72363      -1.52913451    
  0.420626789      0.270320386      -8.18181783E-02   3146.72363      -1.52913451    
  0.420626789      0.270320386     -0.163636401       3146.72363      -1.52913451    
  0.327430397      0.377874792     -0.163636401       3146.72363      -1.52913451    
  0.207707494      0.454816014      -8.18181783E-02   2251.07300      -1.52913451    
  0.327430397      0.377874792      -8.18181783E-02   2251.07300      -1.52913451    
  0.327430397      0.377874792     -0.163636401       2251.07300      -1.52913451    
  0.207707494      0.454816014     -0.163636401       2251.07300      -1.52913451    
   7.11574182E-02  0.494910687      -8.18181783E-02   1173.05237      -1.52913451    
  0.207707494      0.454816014      -8.18181783E-02   1173.05237      -1.52913451    
  0.207707494      0.454816014     -0.163636401       1173.05237      -1.52913451    
   7.11574182E-02  0.494910687     -0.163636401       1173.05237      -1.52913451    
  -7.11574182E-02  0.494910687      -8.18181783E-02   6.90713234E-04   2.56618547    
   7.11574182E-02  0.494910687      -8.18181783E-02   6.90713234E-04   2.56618547    
   7.11574182E-02  0.494910687     -0.163636401       6.90713234E-04   2.56618547    
  -7.11574182E-02  0.494910687     -0.163636401       6.90713234E-04   2.56618547    
 -0.207707494      0.454816014      -8.18181783E-02   1173.05371       1.61245883    
  -7.11574182E-02  0.494910687      -8.18181783E-02   1173.05371       1.61245883    
  -7.11574182E-02  0.494910687     -0.163636401       1173.05371       1.61245883    
 -0.207707494      0.454816014     -0.163636401       1173.05371       1.61245883    
 -0.327430397      0.377874792      -8.18181783E-02   2251.07397       1.61245847    
 -0.207707494      0.454816014      -8.18181783E-02   2251.07397       1.61245847    
 -0.207707494      0.454816014     -0.163636401       2251.07397       1.61245847    
 -0.327430397      0.377874792     -0.163636401       2251.07397       1.61245847    
 -0.420626789      0.270320386      -8.18181783E-02   3146.72314       1.61245847    
 -0.327430397      0.377874792      -8.18181783E-02   3146.72314       1.61245847    
 -0.327430397      0.377874792     -0.163636401       3146.72314       1.61245847    
 -0.420626789      0.270320386     -0.163636401       3146.72314       1.61245847    
 -0.479746491      0.140866295      -8.18181783E-02   3787.44751       1.61245847    
 -0.420626789      0.270320386      -8.18181783E-02   3787.44751       1.61245847    
 -0.420626789      0.270320386     -0.163636401       3787.44751       1.61245847    
 -0.479746491      0.140866295     -0.163636401       3787.44751       1.61245847    
 -0.500000000       2.84000009E-16  -8.18181783E-02   4121.33447       1.61245847    
 -0.479746491      0.140866295      -8.18181783E-02   4121.33447       1.61245847    
 -0.479746491      0.140866295     -0.163636401       4121.33447       1.61245847    
 -0.500000000       2.84000009E-16 -0.163636401       4121.33447       1.61245847    
  0.479746491      0.140866295     -0.163636401       4070.41040      -1.52901971    
  0.500000000       0.00000000     -0.163636401       4070.41040      -1.52901971    
  0.500000000       0.00000000     -0.245454505       4070.41040      -1.52901971    
  0.479746491      0.140866295     -0.245454505       4070.41040      -1.52901971    
  0.420626789      0.270320386     -0.163636401       3740.64868      -1.52901971    
  0.479746491      0.140866295     -0.163636401       3740.64868      -1.52901971    
  0.479746491      0.140866295     -0.245454505       3740.64868      -1.52901971    
  0.420626789      0.270320386     -0.245454505       3740.64868      -1.52901971    
  0.327430397      0.377874792     -0.163636401       3107.84424      -1.52901983    
  0.420626789      0.270320386     -0.163636401       3107.84424      -1.52901983    
  0.420626789      0.270320386     -0.245454505       3107.84424      -1.52901983    
  0.327430397      0.377874792     -0.245454505       3107.84424      -1.52901983    
  0.207707494      0.454816014     -0.163636401       2223.26025      -1.52901995    
  0.327430397      0.377874792     -0.163636401       2223.26025      -1.52901995    
  0.327430397      0.377874792     -0.245454505       2223.26025      -1.52901995    
  0.207707494      0.454816014     -0.245454505       2223.26025      -1.52901995    
   7.11574182E-02  0.494910687     -0.163636401       1158.55933      -1.52902007    
  0.207707494      0.454816014     -0.163636401       1158.55933      -1.52902007    
  0.207707494      0.454816014     -0.245454505       1158.55933      -1.52902007    
   7.11574182E-02  0.494910687     -0.245454505       1158.55933      -1.52902007    
  -7.11574182E-02  0.494910687     -0.163636401       6.00423373E-04   2.61268640    
   7.11574182E-02  0.494910687     -0.163636401       6.00423373E-04   2.61268640    
   7.11574182E-02  0.494910687     -0.245454505       6.00423373E-04   2.61268640    
  -7.11574182E-02  0.494910687     -0.245454505       6.00423373E-04   2.61268640    
 -0.207707494      0.454816014     -0.163636401       1158.55994       1.61257339    
  -7.11574182E-02  0.494910687     -0.163636401       1158.55994       1.61257339    
  -7.11574182E-02  0.494910687     -0.245454505       1158.55994       1.61257339    
 -0.207707494      0.454816014     -0.245454505       1158.55994       1.61257339    
 -0.327430397      0.377874792     -0.163636401       2223.26025       1.61257315    
 -0.207707494      0.454816014     -0.163636401       2223.26025       1.61257315    
 -0.207707494      0.454816014     -0.245454505       2223.26025       1.61257315    
 -0.327430397      0.377874792     -0.245454505       2223.26025       1.61257315    
 -0.420626789      0.270320386     -0.163636401       3107.84448       1.61257315    
 -0.327430397      0.377874792     -0.163636401       3107.84448       1.61257315    
 -0.327430397      0.377874792     -0.245454505       3107.84448       1.61257315    
 -0.420626789      0.270320386     -0.245454505       3107.84448       1.61257315    
 -0.479746491      0.140866295     -0.163636401       3740.65088       1.61257315    
 -0.420626789      0.270320386     -0.163636401       3740.65088       1.61257315    
 -0.420626789      0.270320386     -0.245454505       3740.65088       1.61257315    
 -0.479746491      0.140866295     -0.245454505       3740.65088       1.61257315    
 -0.500000000       2.84000009E-16 -0.163636401       4070.41089       1.61257315    
 -0.479746491      0.140866295     -0.163636401       4070.41089       1.61257315    
 -0.479746491      0.140866295     -0.245454505       4070.41089       1.61257315    
 -0.500000000       2.84000009E-16 -0.245454505       4070.41089       1.61257315    
  0.479746491      0.140866295     -0.245454505       4013.18140      -1.52884448    
  0.500000000       0.00000000     -0.245454505       4013.18140      -1.52884448    
  0.500000000       0.00000000     -0.327272713       4013.18140      -1.52884448    
  0.479746491      0.140866295     -0.327272713       4013.18140      -1.52884448    
  0.420626789      0.270320386     -0.245454505       3688.06030      -1.52884448    
  0.479746491      0.140866295     -0.245454505       3688.06030      -1.52884448    
  0.479746491      0.140866295     -0.327272713       3688.06030      -1.52884448    
  0.420626789      0.270320386     -0.327272713       3688.06030      -1.52884448    
  0.327430397      0.377874792     -0.245454505       3064.14893      -1.52884448    
  0.420626789      0.270320386     -0.245454505       3064.14893      -1.52884448    
  0.420626789      0.270320386     -0.327272713       3064.14893      -1.52884448    
  0.327430397      0.377874792     -0.327272713       3064.14893      -1.52884448    
  0.207707494      0.454816014     -0.245454505       2192.00122      -1.52884448    
  0.327430397      0.377874792     -0.245454505       2192.00122      -1.52884448    
  0.327430397      0.377874792     -0.327272713       2192.00122      -1.52884448    
  0.207707494      0.454816014     -0.327272713       2192.00122      -1.52884448    
   7.11574182E-02  0.494910687     -0.245454505       1142.27002      -1.52884459    
  0.207707494      0.454816014     -0.245454505       1142.27002      -1.52884459    
  0.207707494      0.454816014     -0.327272713       1142.27002      -1.52884459    
   7.11574182E-02  0.494910687     -0.327272713       1142.27002      -1.52884459    
  -7.11574182E-02  0.494910687     -0.245454505       5.66244416E-04   2.45636368    
   7.11574182E-02  0.494910687     -0.245454505       5.66244416E-04   2.45636368    
   7.11574182E-02  0.494910687     -0.327272713       5.66244416E-04   2.45636368    
  -7.11574182E-02  0.494910687     -0.327272713       5.66244416E-04   2.45636368    
 -0.207707494      0.454816014     -0.245454505       1142.27087       1.61274874    
  -7.11574182E-02  0.494910687     -0.245454505       1142.27087       1.61274874    
  -7.11574182E-02  0.494910687     -0.327272713       1142.27087       1.61274874    
 -0.207707494      0.454816014     -0.327272713       1142.27087       1.61274874    
 -0.327430397      0.377874792     -0.245454505       2192.00146       1.61274850    
 -0.207707494      0.454816014     -0.245454505       2192.00146       1.61274850    
 -0.207707494      0.454816014     -0.327272713       2192.00146       1.61274850    
 -0.327430397      0.377874792     -0.327272713       2192.00146       1.61274850    
 -0.420626789      0.270320386     -0.245454505       3064.15063       1.61274850    
 -0.327430397      0.377874792     -0.245454505       3064.15063       1.61274850    
 -0.327430397      0.377874792     -0.327272713       3064.15063       1.61274850    
 -0.420626789      0.270320386     -0.327272713       3064.15063       1.61274850    
 -0.479746491      0.140866295     -0.245454505       3688.06104       1.61274838    
 -0.420626789      0.270320386     -0.245454505       3688.06104       1.61274838    
 -0.420626789      0.270320386     -0.327272713       3688.06104       1.61274838    
 -0.479746491      0.140866295     -0.327272713       3688.06104       1.61274838    
 -0.500000000       2.84000009E-16 -0.245454505       4013.18311       1.61274838    
 -0.479746491      0.140866295     -0.245454505       4013.18311       1.61274838    
 -0.479746491      0.140866295     -0.327272713       4013.18311       1.61274838    
 -0.500000000       2.84000009E-16 -0.327272713       4013.18311       1.61274838    
  0.479746491      0.140866295     -0.327272713       3948.95044      -1.52860367    
  0.500000000       0.00000000     -0.327272713       3948.95044      -1.52860367    
  0.500000000       0.00000000     -0.409090906       3948.95044      -1.52860367    
  0.479746491      0.140866295     -0.409090906       3948.95044      -1.52860367    
  0.420626789      0.270320386     -0.327272713       3629.02759      -1.52860367    
  0.479746491      0.140866295     -0.327272713       3629.02759      -1.52860367    
  0.479746491      0.140866295     -0.409090906       3629.02759      -1.52860367    
  0.420626789      0.270320386     -0.409090906       3629.02759      -1.52860367    
  0.327430397      0.377874792     -0.327272713       3015.10571      -1.52860367    
  0.420626789      0.270320386     -0.327272713       3015.10571      -1.52860367    
  0.420626789      0.270320386     -0.409090906       3015.10571      -1.52860367    
  0.327430397      0.377874792     -0.409090906       3015.10571      -1.52860367    
  0.207707494      0.454816014     -0.327272713       2156.91895      -1.52860391    
  0.327430397      0.377874792     -0.327272713       2156.91895      -1.52860391    
  0.327430397      0.377874792     -0.409090906       2156.91895      -1.52860391    
  0.207707494      0.454816014     -0.409090906       2156.91895      -1.52860391    
   7.11574182E-02  0.494910687     -0.327272713       1123.98840      -1.52860403    
  0.207707494      0.454816014     -0.327272713       1123.98840      -1.52860403    
  0.207707494      0.454816014     -0.409090906       1123.98840      -1.52860403    
   7.11574182E-02  0.494910687     -0.409090906       1123.98840      -1.52860403    
  -7.11574182E-02  0.494910687     -0.327272713       7.01071636E-04   2.26449323    
   7.11574182E-02  0.494910687     -0.327272713       7.01071636E-04   2.26449323    
   7.11574182E-02  0.494910687     -0.409090906       7.01071636E-04   2.26449323    
  -7.11574182E-02  0.494910687     -0.409090906       7.01071636E-04   2.26449323    
 -0.207707494      0.454816014     -0.327272713       1123.98889       1.61298954    
  -7.11574182E-02  0.494910687     -0.327272713       1123.98889       1.61298954    
  -7.11574182E-02  0.494910687     -0.409090906       1123.98889       1.61298954    
 -0.207707494      0.454816014     -0.409090906       1123.98889       1.61298954    
 -0.327430397      0.377874792     -0.327272713       2156.91968       1.61298919    
 -0.207707494      0.454816014     -0.327272713       2156.91968       1.61298919    
 -0.207707494      0.454816014     -0.409090906       2156.91968       1.61298919    
 -0.327430397      0.377874792     -0.409090906       2156.91968       1.61298919    
 -0.420626789      0.270320386     -0.327272713       3015.10742       1.61298931    
 -0.327430397      0.377874792     -0.327272713       3015.10742       1.61298931    
 -0.327430397      0.377874792     -0.409090906       3015.10742       1.61298931    
 -0.420626789      0.270320386     -0.409090906       3015.10742       1.61298931    
 -0.479746491      0.140866295     -0.327272713       3629.02954       1.61298919    
 -0.420626789      0.270320386     -0.327272713       3629.02954       1.61298919    
 -0.420626789      0.270320386     -0.409090906       3629.02954       1.61298919    
 -0.479746491      0.140866295     -0.409090906       3629.02954       1.61298919    
 -0.500000000       2.84000009E-16 -0.327272713       3948.95093       1.61298919    
 -0.479746491      0.140866295     -0.327272713       3948.95093       1.61298919    
 -0.479746491      0.140866295     -0.409090906       3948.95093       1.61298919    
 -0.500000000       2.84000009E-16 -0.409090906       3948.95093       1.61298919    
  0.479746491      0.140866295     -0.409090906       3875.71289      -1.52828479    
  0.500000000       0.00000000     -0.409090906       3875.71289      -1.52828479    
  0.500000000       0.00000000     -0.490909100       3875.71289      -1.52828479    
  0.479746491      0.140866295     -0.490909100       3875.71289      -1.52828479    
  0.420626789      0.270320386     -0.409090906       3561.72681      -1.52828479    
  0.479746491      0.140866295     -0.409090906       3561.72681      -1.52828479    
  0.479746491      0.140866295     -0.490909100       3561.72681      -1.52828479    
  0.420626789      0.270320386     -0.490909100       3561.72681      -1.52828479    
  0.327430397      0.377874792     -0.409090906       2959.18896      -1.52828479    
  0.420626789      0.270320386     -0.409090906       2959.18896      -1.52828479    
  0.420626789      0.270320386     -0.490909100       2959.18896      -1.52828479    
  0.327430397      0.377874792     -0.490909100       2959.18896      -1.52828479    
  0.207707494      0.454816014     -0.409090906       2116.91650      -1.52828491    
  0.327430397      0.377874792     -0.409090906       2116.91650      -1.52828491    
  0.327430397      0.377874792     -0.490909100       2116.91650      -1.52828491    
  0.207707494      0.454816014     -0.490909100       2116.91650      -1.52828491    
   7.11574182E-02  0.494910687     -0.409090906       1103.14282      -1.52828515    
  0.207707494      0.454816014     -0.409090906       1103.14282      -1.52828515    
  0.207707494      0.454816014     -0.490909100       1103.14282      -1.52828515    
   7.11574182E-02  0.494910687     -0.490909100       1103.14282      -1.52828515    
  -7.11574182E-02  0.494910687     -0.409090906       7.02552032E-04   2.40202904    
   7.11574182E-02  0.494910687     -0.409090906       7.02552032E-04   2.40202904    
   7.11574182E-02  0.494910687     -0.490909100       7.02552032E-04   2.40202904    
  -7.11574182E-02  0.494910687     -0.490909100       7.02552032E-04   2.40202904    
 -0.207707494      0.454816014     -0.409090906       1103.14355       1.61330831    
  -7.11574182E-02  0.494910687     -0.409090906       1103.14355       1.61330831    
  -7.11574182E-02  0.494910687     -0.490909100       1103.14355       1.61330831    
 -0.207707494      0.454816014     -0.490909100       1103.14355       1.61330831    
 -0.327430397      0.377874792     -0.409090906       2116.91699       1.61330819    
 -0.207707494      0.454816014     -0.409090906       2116.91699       1.61330819    
 -0.207707494      0.454816014     -0.490909100       2116.91699       1.61330819    
 -0.327430397      0.377874792     -0.490909100       2116.91699       1.61330819    
 -0.420626789      0.270320386     -0.409090906       2959.19043       1.61330807    
 -0.327430397      0.377874792     -0.409090906       2959.19043       1.61330807    
 -0.327430397      0.377874792     -0.490909100       2959.19043       1.61330807    
 -0.420626789      0.270320386     -0.490909100       2959.19043       1.61330807    
 -0.479746491      0.140866295     -0.409090906       3561.72876       1.61330807    
 -0.420626789      0.270320386     -0.409090906       3561.72876       1.61330807    
 -0.420626789      0.270320386     -0.490909100       3561.72876       1.61330807    
 -0.479746491      0.140866295     -0.490909100       3561.72876       1.61330807    
 -0.500000000       2.84000009E-16 -0.409090906       3875.71509       1.61330807    
 -0.479746491      0.140866295     -0.409090906       3875.71509       1.61330807    
 -0.479746491      0.140866295     -0.490909100       3875.71509       1.61330807    
 -0.500000000       2.84000009E-16 -0.490909100       3875.71509       1.61330807    
  0.479746491      0.140866295     -0.490909100       3789.80737      -1.52786422    
  0.500000000       0.00000000     -0.490909100       3789.80737      -1.52786422    
  0.500000000       0.00000000     -0.572727323       3789.80737      -1.52786422    
  0.479746491      0.140866295     -0.572727323       3789.80737      -1.52786422    
  0.420626789      0.270320386     -0.490909100       3482.77881      -1.52786422    
  0.479746491      0.140866295     -0.490909100       3482.77881      -1.52786422    
  0.479746491      0.140866295     -0.572727323       3482.77881      -1.52786422    
  0.420626789      0.270320386     -0.572727323       3482.77881      -1.52786422    
  0.327430397      0.377874792     -0.490909100       2893.59692      -1.52786422    
  0.420626789      0.270320386     -0.490909100       2893.59692      -1.52786422    
  0.420626789      0.270320386     -0.572727323       2893.59692      -1.52786422    
  0.327430397      0.377874792     -0.572727323       2893.59692      -1.52786422    
  0.207707494      0.454816014     -0.490909100       2069.99390      -1.52786434    
  0.327430397      0.377874792     -0.490909100       2069.99390      -1.52786434    
  0.327430397      0.377874792     -0.572727323       2069.99390      -1.52786434    
  0.207707494      0.454816014     -0.572727323       2069.99390      -1.52786434    
   7.11574182E-02  0.494910687     -0.490909100       1078.69080      -1.52786446    
  0.207707494      0.454816014     -0.490909100       1078.69080      -1.52786446    
  0.207707494      0.454816014     -0.572727323       1078.69080      -1.52786446    
   7.11574182E-02  0.494910687     -0.572727323       1078.69080      -1.52786446    
  -7.11574182E-02  0.494910687     -0.490909100       5.93544682E-04   2.22922087    
   7.11574182E-02  0.494910687     -0.490909100       5.93544682E-04   2.22922087    
   7.11574182E-02  0.494910687     -0.572727323       5.93544682E-04   2.22922087    
  -7.11574182E-02  0.494910687     -0.572727323       5.93544682E-04   2.22922087    
 -0.207707494      0.454816014     -0.490909100       1078.69177       1.61372888    
  -7.11574182E-02  0.494910687     -0.490909100       1078.69177       1.61372888    
  -7.11574182E-02  0.494910687     -0.572727323       1078.69177       1.61372888    
 -0.207707494      0.454816014     -0.572727323       1078.69177       1.61372888    
 -0.327430397      0.377874792     -0.490909100       2069.99414       1.61372864    
 -0.207707494      0.454816014     -0.490909100       2069.99414       1.61372864    
 -0.207707494      0.454816014     -0.572727323       2069.99414       1.61372864    
 -0.327430397      0.377874792     -0.572727323       2069.99414       1.61372864    
 -0.420626789      0.270320386     -0.490909100       2893.59741       1.61372876    
 -0.327430397      0.377874792     -0.490909100       2893.59741       1.61372876    
 -0.327430397      0.377874792     -0.572727323       2893.59741       1.61372876    
 -0.420626789      0.270320386     -0.572727323       2893.59741       1.61372876    
 -0.479746491      0.140866295     -0.490909100       3482.77979       1.61372864    
 -0.420626789      0.270320386     -0.490909100       3482.77979       1.61372864    
 -0.420626789      0.270320386     -0.572727323       3482.77979       1.61372864    
 -0.479746491      0.140866295     -0.572727323       3482.77979       1.61372864    
 -0.500000000       2.84000009E-16 -0.490909100       3789.80786       1.61372864    
 -0.479746491      0.140866295     -0.490909100       3789.80786       1.61372864    
 -0.479746491      0.140866295     -0.572727323       3789.80786       1.61372864    
 -0.500000000       2.84000009E-16 -0.572727323       3789.80786       1.61372864    
  0.479746491      0.140866295     -0.572727323       3684.97461      -1.52729928    
  0.500000000       0.00000000     -0.572727323       3684.97461      -1.52729928    
  0.500000000       0.00000000     -0.654545426       3684.97461      -1.52729928    
  0.479746491      0.140866295     -0.654545426       3684.97461      -1.52729928    
  0.420626789      0.270320386     -0.572727323       3386.44092      -1.52729928    
  0.479746491      0.140866295     -0.572727323       3386.44092      -1.52729928    
  0.479746491      0.140866295     -0.654545426       3386.44092      -1.52729928    
  0.420626789      0.270320386     -0.654545426       3386.44092      -1.52729928    
  0.327430397      0.377874792     -0.572727323       2813.55566      -1.52729928    
  0.420626789      0.270320386     -0.572727323       2813.55566      -1.52729928    
  0.420626789      0.270320386     -0.654545426       2813.55566      -1.52729928    
  0.327430397      0.377874792     -0.654545426       2813.55566      -1.52729928    
  0.207707494      0.454816014     -0.572727323       2012.73364      -1.52729952    
  0.327430397      0.377874792     -0.572727323       2012.73364      -1.52729952    
  0.327430397      0.377874792     -0.654545426       2012.73364      -1.52729952    
  0.207707494      0.454816014     -0.654545426       2012.73364      -1.52729952    
   7.11574182E-02  0.494910687     -0.572727323       1048.85205      -1.52729952    
  0.207707494      0.454816014     -0.572727323       1048.85205      -1.52729952    
  0.207707494      0.454816014     -0.654545426       1048.85205      -1.52729952    
   7.11574182E-02  0.494910687     -0.654545426       1048.85205      -1.52729952    
  -7.11574182E-02  0.494910687     -0.572727323       5.29682962E-04   2.47527242    
   7.11574182E-02  0.494910687     -0.572727323       5.29682962E-04   2.47527242    
   7.11574182E-02  0.494910687     -0.654545426       5.29682962E-04   2.47527242    
  -7.11574182E-02  0.494910687     -0.654545426       5.29682962E-04   2.47527242    
 -0.207707494      0.454816014     -0.572727323       1048.85266       1.61429393    
  -7.11574182E-02  0.494910687     -0.572727323       1048.85266       1.61429393    
  -7.11574182E-02  0.494910687     -0.654545426       1048.85266       1.61429393    
 -0.207707494      0.454816014     -0.654545426       1048.85266       1.61429393    
 -0.327430397      0.377874792     -0.572727323       2012.73450       1.61429358    
 -0.207707494      0.454816014     -0.572727323       2012.73450       1.61429358    
 -0.207707494      0.454816014     -0.654545426       2012.73450       1.61429358    
 -0.327430397      0.377874792     -0.654545426       2012.73450       1.61429358    
 -0.420626789      0.270320386     -0.572727323       2813.55640       1.61429358    
 -0.327430397      0.377874792     -0.572727323       2813.55640       1.61429358    
 -0.327430397      0.377874792     -0.654545426       2813.55640       1.61429358    
 -0.420626789      0.270320386     -0.654545426       2813.55640       1.61429358    
 -0.479746491      0.140866295     -0.572727323       3386.44189       1.61429358    
 -0.420626789      0.270320386     -0.572727323       3386.44189       1.61429358    
 -0.420626789      0.270320386     -0.654545426       3386.44189       1.61429358    