 VARIABLES="X" "Y" "Z" "abs(p) (Pa)" "angle(p) (rad)"
ZONE N=    528,E =     462, F=FEPOINT, ET=QUADRILATERAL
  0.479746491      0.140866295       0.00000000       18422.7168       7.99489617E-02
  0.500000000       0.00000000       0.00000000       18422.7168       7.99489617E-02
  0.500000000       0.00000000      -8.18181783E-02   18422.7168       7.99489617E-02
  0.479746491      0.140866295      -8.18181783E-02   18422.7168       7.99489617E-02
  0.420626789      0.270320386       0.00000000       16930.2031       7.99491182E-02
  0.479746491      0.140866295       0.00000000       16930.2031       7.99491182E-02
  0.479746491      0.140866295      -8.18181783E-02   16930.2031       7.99491182E-02
  0.420626789      0.270320386      -8.18181783E-02   16930.2031       7.99491182E-02
  0.327430397      0.377874792       0.00000000       14066.1270       7.99493566E-02
  0.420626789      0.270320386       0.00000000       14066.1270       7.99493566E-02
  0.420626789      0.270320386      -8.18181783E-02   14066.1270       7.99493566E-02
  0.327430397      0.377874792      -8.18181783E-02   14066.1270       7.99493566E-02
  0.207707494      0.454816014       0.00000000       10062.4883       7.99490288E-02
  0.327430397      0.377874792       0.00000000       10062.4883       7.99490288E-02
  0.327430397      0.377874792      -8.18181783E-02   10062.4883       7.99490288E-02
  0.207707494      0.454816014      -8.18181783E-02   10062.4883       7.99490288E-02
   7.11574182E-02  0.494910687       0.00000000       5243.64844       7.99485967E-02
  0.207707494      0.454816014       0.00000000       5243.64844       7.99485967E-02
  0.207707494      0.454816014      -8.18181783E-02   5243.64844       7.99485967E-02
   7.11574182E-02  0.494910687      -8.18181783E-02   5243.64844       7.99485967E-02
  -7.11574182E-02  0.494910687       0.00000000       1.73853675E-03   2.17923570    
   7.11574182E-02  0.494910687       0.00000000       1.73853675E-03   2.17923570    
   7.11574182E-02  0.494910687      -8.18181783E-02   1.73853675E-03   2.17923570    
  -7.11574182E-02  0.494910687      -8.18181783E-02   1.73853675E-03   2.17923570    
 -0.207707494      0.454816014       0.00000000       5243.65039      -3.06164336    
  -7.11574182E-02  0.494910687       0.00000000       5243.65039      -3.06164336    
  -7.11574182E-02  0.494910687      -8.18181783E-02   5243.65039      -3.06164336    
 -0.207707494      0.454816014      -8.18181783E-02   5243.65039      -3.06164336    
 -0.327430397      0.377874792       0.00000000       10062.4912      -3.06164336    
 -0.207707494      0.454816014       0.00000000       10062.4912      -3.06164336    
 -0.207707494      0.454816014      -8.18181783E-02   10062.4912      -3.06164336    
 -0.327430397      0.377874792      -8.18181783E-02   10062.4912      -3.06164336    
 -0.420626789      0.270320386       0.00000000       14066.1250      -3.06164336    
 -0.327430397      0.377874792       0.00000000       14066.1250      -3.06164336    
 -0.327430397      0.377874792      -8.18181783E-02   14066.1250      -3.06164336    
 -0.420626789      0.270320386      -8.18181783E-02   14066.1250      -3.06164336    
 -0.479746491      0.140866295       0.00000000       16930.2051      -3.06164336    
 -0.420626789      0.270320386       0.00000000       16930.2051      -3.06164336    
 -0.420626789      0.270320386      -8.18181783E-02   16930.2051      -3.06164336    
 -0.479746491      0.140866295      -8.18181783E-02   16930.2051      -3.06164336    
 -0.500000000       2.84000009E-16   0.00000000       18422.7148      -3.06164336    
 -0.479746491      0.140866295       0.00000000       18422.7148      -3.06164336    
 -0.479746491      0.140866295      -8.18181783E-02   18422.7148      -3.06164336    
 -0.500000000       2.84000009E-16  -8.18181783E-02   18422.7148      -3.06164336    
  0.479746491      0.140866295      -8.18181783E-02   12627.3701      -7.35241547E-02
  0.500000000       0.00000000      -8.18181783E-02   12627.3701      -7.35241547E-02
  0.500000000       0.00000000     -0.163636401       12627.3701      -7.35241547E-02
  0.479746491      0.140866295     -0.163636401       12627.3701      -7.35241547E-02
  0.420626789      0.270320386      -8.18181783E-02   11604.3701      -7.35237449E-02
  0.479746491      0.140866295      -8.18181783E-02   11604.3701      -7.35237449E-02
  0.479746491      0.140866295     -0.163636401       11604.3701      -7.35237449E-02
  0.420626789      0.270320386     -0.163636401       11604.3701      -7.35237449E-02
  0.327430397      0.377874792      -8.18181783E-02   9641.26172      -7.35236481E-02
  0.420626789      0.270320386      -8.18181783E-02   9641.26172      -7.35236481E-02
  0.420626789      0.270320386     -0.163636401       9641.26172      -7.35236481E-02
  0.327430397      0.377874792     -0.163636401       9641.26172      -7.35236481E-02
  0.207707494      0.454816014      -8.18181783E-02   6897.06934      -7.35237375E-02
  0.327430397      0.377874792      -8.18181783E-02   6897.06934      -7.35237375E-02
  0.327430397      0.377874792     -0.163636401       6897.06934      -7.35237375E-02
  0.207707494      0.454816014     -0.163636401       6897.06934      -7.35237375E-02
   7.11574182E-02  0.494910687      -8.18181783E-02   3594.12085      -7.35234991E-02
  0.207707494      0.454816014      -8.18181783E-02   3594.12085      -7.35234991E-02
  0.207707494      0.454816014     -0.163636401       3594.12085      -7.35234991E-02
   7.11574182E-02  0.494910687     -0.163636401       3594.12085      -7.35234991E-02
  -7.11574182E-02  0.494910687      -8.18181783E-02   6.21382904E-04  -2.78927374    
   7.11574182E-02  0.494910687      -8.18181783E-02   6.21382904E-04  -2.78927374    
   7.11574182E-02  0.494910687     -0.163636401       6.21382904E-04  -2.78927374    
  -7.11574182E-02  0.494910687     -0.163636401       6.21382904E-04  -2.78927374    
 -0.207707494      0.454816014      -8.18181783E-02   3594.12256       3.06806827    
  -7.11574182E-02  0.494910687      -8.18181783E-02   3594.12256       3.06806827    
  -7.11574182E-02  0.494910687     -0.163636401       3594.12256       3.06806827    
 -0.207707494      0.454816014     -0.163636401       3594.12256       3.06806827    
 -0.327430397      0.377874792      -8.18181783E-02   6897.06982       3.06806874    
 -0.207707494      0.454816014      -8.18181783E-02   6897.06982       3.06806874    
 -0.207707494      0.454816014     -0.163636401       6897.06982       3.06806874    
 -0.327430397      0.377874792     -0.163636401       6897.06982       3.06806874    
 -0.420626789      0.270320386      -8.18181783E-02   9641.26367       3.06806850    
 -0.327430397      0.377874792      -8.18181783E-02   9641.26367       3.06806850    
 -0.327430397      0.377874792     -0.163636401       9641.26367       3.06806850    
 -0.420626789      0.270320386     -0.163636401       9641.26367       3.06806850    
 -0.479746491      0.140866295      -8.18181783E-02   11604.3721       3.06806874    
 -0.420626789      0.270320386      -8.18181783E-02   11604.3721       3.06806874    
 -0.420626789      0.270320386     -0.163636401       11604.3721       3.06806874    
 -0.479746491      0.140866295     -0.163636401       11604.3721       3.06806874    
 -0.500000000       2.84000009E-16  -8.18181783E-02   12627.3691       3.06806850    
 -0.479746491      0.140866295      -8.18181783E-02   12627.3691       3.06806850    
 -0.479746491      0.140866295     -0.163636401       12627.3691       3.06806850    
 -0.500000000       2.84000009E-16 -0.163636401       12627.3691       3.06806850    
  0.479746491      0.140866295     -0.163636401       9340.14160     -0.387600243    
  0.500000000       0.00000000     -0.163636401       9340.14160     -0.387600243    
  0.500000000       0.00000000     -0.245454505       9340.14160     -0.387600243    
  0.479746491      0.140866295     -0.245454505       9340.14160     -0.387600243    
  0.420626789      0.270320386     -0.163636401       8583.44727     -0.387600213    
  0.479746491      0.140866295     -0.163636401       8583.44727     -0.387600213    
  0.479746491      0.140866295     -0.245454505       8583.44727     -0.387600213    
  0.420626789      0.270320386     -0.245454505       8583.44727     -0.387600213    
  0.327430397      0.377874792     -0.163636401       7131.39307     -0.387599587    
  0.420626789      0.270320386     -0.163636401       7131.39307     -0.387599587    
  0.420626789      0.270320386     -0.245454505       7131.39307     -0.387599587    
  0.327430397      0.377874792     -0.245454505       7131.39307     -0.387599587    
  0.207707494      0.454816014     -0.163636401       5101.58740     -0.387599736    
  0.327430397      0.377874792     -0.163636401       5101.58740     -0.387599736    
  0.327430397      0.377874792     -0.245454505       5101.58740     -0.387599736    
  0.207707494      0.454816014     -0.245454505       5101.58740     -0.387599736    
   7.11574182E-02  0.494910687     -0.163636401       2658.47900     -0.387599081    
  0.207707494      0.454816014     -0.163636401       2658.47900     -0.387599081    
  0.207707494      0.454816014     -0.245454505       2658.47900     -0.387599081    
   7.11574182E-02  0.494910687     -0.245454505       2658.47900     -0.387599081    
  -7.11574182E-02  0.494910687     -0.163636401       9.67614527E-04   1.31537068    
   7.11574182E-02  0.494910687     -0.163636401       9.67614527E-04   1.31537068    
   7.11574182E-02  0.494910687     -0.245454505       9.67614527E-04   1.31537068    
  -7.11574182E-02  0.494910687     -0.245454505       9.67614527E-04   1.31537068    
 -0.207707494      0.454816014     -0.163636401       2658.47778       2.75399399    
  -7.11574182E-02  0.494910687     -0.163636401       2658.47778       2.75399399    
  -7.11574182E-02  0.494910687     -0.245454505       2658.47778       2.75399399    
 -0.207707494      0.454816014     -0.245454505       2658.47778       2.75399399    
 -0.327430397      0.377874792     -0.163636401       5101.58594       2.75399375    
 -0.207707494      0.454816014     -0.163636401       5101.58594       2.75399375    
 -0.207707494      0.454816014     -0.245454505       5101.58594       2.75399375    
 -0.327430397      0.377874792     -0.245454505       5101.58594       2.75399375    
 -0.420626789      0.270320386     -0.163636401       7131.39258       2.75399351    
 -0.327430397      0.377874792     -0.163636401       7131.39258       2.75399351    
 -0.327430397      0.377874792     -0.245454505       7131.39258       2.75399351    
 -0.420626789      0.270320386     -0.245454505       7131.39258       2.75399351    
 -0.479746491      0.140866295     -0.163636401       8583.45020       2.75399232    
 -0.420626789      0.270320386     -0.163636401       8583.45020       2.75399232    
 -0.420626789      0.270320386     -0.245454505       8583.45020       2.75399232    
 -0.479746491      0.140866295     -0.245454505       8583.45020       2.75399232    
 -0.500000000       2.84000009E-16 -0.163636401       9340.14258       2.75399208    
 -0.479746491      0.140866295     -0.163636401       9340.14258       2.75399208    
 -0.479746491      0.140866295     -0.245454505       9340.14258       2.75399208    
 -0.500000000       2.84000009E-16 -0.245454505       9340.14258       2.75399208    
  0.479746491      0.140866295     -0.245454505       8365.12402     -0.780963838    
  0.500000000       0.00000000     -0.245454505       8365.12402     -0.780963838    
  0.500000000       0.00000000     -0.327272713       8365.12402     -0.780963838    
  0.479746491      0.140866295     -0.327272713       8365.12402     -0.780963838    
  0.420626789      0.270320386     -0.245454505       7687.42871     -0.780963480    
  0.479746491      0.140866295     -0.245454505       7687.42871     -0.780963480    
  0.479746491      0.140866295     -0.327272713       7687.42871     -0.780963480    
  0.420626789      0.270320386     -0.327272713       7687.42871     -0.780963480    
  0.327430397      0.377874792     -0.245454505       6386.94385     -0.780963063    
  0.420626789      0.270320386     -0.245454505       6386.94385     -0.780963063    
  0.420626789      0.270320386     -0.327272713       6386.94385     -0.780963063    
  0.327430397      0.377874792     -0.327272713       6386.94385     -0.780963063    
  0.207707494      0.454816014     -0.245454505       4569.03027     -0.780962884    
  0.327430397      0.377874792     -0.245454505       4569.03027     -0.780962884    
  0.327430397      0.377874792     -0.327272713       4569.03027     -0.780962884    
  0.207707494      0.454816014     -0.327272713       4569.03027     -0.780962884    
   7.11574182E-02  0.494910687     -0.245454505       2380.96338     -0.780963480    
  0.207707494      0.454816014     -0.245454505       2380.96338     -0.780963480    
  0.207707494      0.454816014     -0.327272713       2380.96338     -0.780963480    
   7.11574182E-02  0.494910687     -0.327272713       2380.96338     -0.780963480    
  -7.11574182E-02  0.494910687     -0.245454505       1.26091996E-03   1.36918437    
   7.11574182E-02  0.494910687     -0.245454505       1.26091996E-03   1.36918437    
   7.11574182E-02  0.494910687     -0.327272713       1.26091996E-03   1.36918437    
  -7.11574182E-02  0.494910687     -0.327272713       1.26091996E-03   1.36918437    
 -0.207707494      0.454816014     -0.245454505       2380.96167       2.36063027    
  -7.11574182E-02  0.494910687     -0.245454505       2380.96167       2.36063027    
  -7.11574182E-02  0.494910687     -0.327272713       2380.96167       2.36063027    
 -0.207707494      0.454816014     -0.327272713       2380.96167       2.36063027    
 -0.327430397      0.377874792     -0.245454505       4569.03076       2.36062956    
 -0.207707494      0.454816014     -0.245454505       4569.03076       2.36062956    
 -0.207707494      0.454816014     -0.327272713       4569.03076       2.36062956    
 -0.327430397      0.377874792     -0.327272713       4569.03076       2.36062956    
 -0.420626789      0.270320386     -0.245454505       6386.94482       2.36062956    
 -0.327430397      0.377874792     -0.245454505       6386.94482       2.36062956    
 -0.327430397      0.377874792     -0.327272713       6386.94482       2.36062956    
 -0.420626789      0.270320386     -0.327272713       6386.94482       2.36062956    
 -0.479746491      0.140866295     -0.245454505       7687.43066       2.36062932    
 -0.420626789      0.270320386     -0.245454505       7687.43066       2.36062932    
 -0.420626789      0.270320386     -0.327272713       7687.43066       2.36062932    
 -0.479746491      0.140866295     -0.327272713       7687.43066       2.36062932    
 -0.500000000       2.84000009E-16 -0.245454505       8365.12598       2.36062860    
 -0.479746491      0.140866295     -0.245454505       8365.12598       2.36062860    
 -0.479746491      0.140866295     -0.327272713       8365.12598       2.36062860    
 -0.500000000       2.84000009E-16 -0.327272713       8365.12598       2.36062860    
  0.479746491      0.140866295     -0.327272713       8858.33496      -1.09141934    
  0.500000000       0.00000000     -0.327272713       8858.33496      -1.09141934    
  0.500000000       0.00000000     -0.409090906       8858.33496      -1.09141934    
  0.479746491      0.140866295     -0.409090906       8858.33496      -1.09141934    
  0.420626789      0.270320386     -0.327272713       8140.68213      -1.09141910    
  0.479746491      0.140866295     -0.327272713       8140.68213      -1.09141910    
  0.479746491      0.140866295     -0.409090906       8140.68213      -1.09141910    
  0.420626789      0.270320386     -0.409090906       8140.68213      -1.09141910    
  0.327430397      0.377874792     -0.327272713       6763.52246      -1.09141910    
  0.420626789      0.270320386     -0.327272713       6763.52246      -1.09141910    
  0.420626789      0.270320386     -0.409090906       6763.52246      -1.09141910    
  0.327430397      0.377874792     -0.409090906       6763.52246      -1.09141910    
  0.207707494      0.454816014     -0.327272713       4838.42383      -1.09141946    
  0.327430397      0.377874792     -0.327272713       4838.42383      -1.09141946    
  0.327430397      0.377874792     -0.409090906       4838.42383      -1.09141946    
  0.207707494      0.454816014     -0.409090906       4838.42383      -1.09141946    
   7.11574182E-02  0.494910687     -0.327272713       2521.34448      -1.09141934    
  0.207707494      0.454816014     -0.327272713       2521.34448      -1.09141934    
  0.207707494      0.454816014     -0.409090906       2521.34448      -1.09141934    
   7.11574182E-02  0.494910687     -0.409090906       2521.34448      -1.09141934    
  -7.11574182E-02  0.494910687     -0.327272713       1.04020722E-03  -1.35863507    
   7.11574182E-02  0.494910687     -0.327272713       1.04020722E-03  -1.35863507    
   7.11574182E-02  0.494910687     -0.409090906       1.04020722E-03  -1.35863507    
  -7.11574182E-02  0.494910687     -0.409090906       1.04020722E-03  -1.35863507    
 -0.207707494      0.454816014     -0.327272713       2521.34326       2.05017352    
  -7.11574182E-02  0.494910687     -0.327272713       2521.34326       2.05017352    
  -7.11574182E-02  0.494910687     -0.409090906       2521.34326       2.05017352    
 -0.207707494      0.454816014     -0.409090906       2521.34326       2.05017352    
 -0.327430397      0.377874792     -0.327272713       4838.42285       2.05017352    
 -0.207707494      0.454816014     -0.327272713       4838.42285       2.05017352    
 -0.207707494      0.454816014     -0.409090906       4838.42285       2.05017352    
 -0.327430397      0.377874792     -0.409090906       4838.42285       2.05017352    
 -0.420626789      0.270320386     -0.327272713       6763.52344       2.05017352    
 -0.327430397      0.377874792     -0.327272713       6763.52344       2.05017352    
 -0.327430397      0.377874792     -0.409090906       6763.52344       2.05017352    
 -0.420626789      0.270320386     -0.409090906       6763.52344       2.05017352    
 -0.479746491      0.140866295     -0.327272713       8140.68359       2.05017328    
 -0.420626789      0.270320386     -0.327272713       8140.68359       2.05017328    
 -0.420626789      0.270320386     -0.409090906       8140.68359       2.05017328    
 -0.479746491      0.140866295     -0.409090906       8140.68359       2.05017328    
 -0.500000000       2.84000009E-16 -0.327272713       8858.33594       2.05017328    
 -0.479746491      0.140866295     -0.327272713       8858.33594       2.05017328    
 -0.479746491      0.140866295     -0.409090906       8858.33594       2.05017328    
 -0.500000000       2.84000009E-16 -0.409090906       8858.33594       2.05017328    
  0.479746491      0.140866295     -0.409090906       9819.64551      -1.28010392    
  0.500000000       0.00000000     -0.409090906       9819.64551      -1.28010392    
  0.500000000       0.00000000     -0.490909100       9819.64551      -1.28010392    
  0.479746491      0.140866295     -0.490909100       9819.64551      -1.28010392    
  0.420626789      0.270320386     -0.409090906       9024.10742      -1.28010356    
  0.479746491      0.140866295     -0.409090906       9024.10742      -1.28010356    
  0.479746491      0.140866295     -0.490909100       9024.10742      -1.28010356    
  0.420626789      0.270320386     -0.490909100       9024.10742      -1.28010356    
  0.327430397      0.377874792     -0.409090906       7497.49951      -1.28010368    
  0.420626789      0.270320386     -0.409090906       7497.49951      -1.28010368    
  0.420626789      0.270320386     -0.490909100       7497.49951      -1.28010368    
  0.327430397      0.377874792     -0.490909100       7497.49951      -1.28010368    
  0.207707494      0.454816014     -0.409090906       5363.49170      -1.28010380    
  0.327430397      0.377874792     -0.409090906       5363.49170      -1.28010380    
  0.327430397      0.377874792     -0.490909100       5363.49170      -1.28010380    
  0.207707494      0.454816014     -0.490909100       5363.49170      -1.28010380    
   7.11574182E-02  0.494910687     -0.409090906       2794.96216      -1.28010392    
  0.207707494      0.454816014     -0.409090906       2794.96216      -1.28010392    
  0.207707494      0.454816014     -0.490909100       2794.96216      -1.28010392    
   7.11574182E-02  0.494910687     -0.490909100       2794.96216      -1.28010392    
  -7.11574182E-02  0.494910687     -0.409090906       7.80658622E-04   1.81925356    
   7.11574182E-02  0.494910687     -0.409090906       7.80658622E-04   1.81925356    
   7.11574182E-02  0.494910687     -0.490909100       7.80658622E-04   1.81925356    
  -7.11574182E-02  0.494910687     -0.490909100       7.80658622E-04   1.81925356    
 -0.207707494      0.454816014     -0.409090906       2794.96362       1.86148834    
  -7.11574182E-02  0.494910687     -0.409090906       2794.96362       1.86148834    
  -7.11574182E-02  0.494910687     -0.490909100       2794.96362       1.86148834    
 -0.207707494      0.454816014     -0.490909100       2794.96362       1.86148834    
 -0.327430397      0.377874792     -0.409090906       5363.49512       1.86148870    
 -0.207707494      0.454816014     -0.409090906       5363.49512       1.86148870    
 -0.207707494      0.454816014     -0.490909100       5363.49512       1.86148870    
 -0.327430397      0.377874792     -0.490909100       5363.49512       1.86148870    
 -0.420626789      0.270320386     -0.409090906       7497.50098       1.86148894    
 -0.327430397      0.377874792     -0.409090906       7497.50098       1.86148894    
 -0.327430397      0.377874792     -0.490909100       7497.50098       1.86148894    
 -0.420626789      0.270320386     -0.490909100       7497.50098       1.86148894    
 -0.479746491      0.140866295     -0.409090906       9024.11523       1.86148882    
 -0.420626789      0.270320386     -0.409090906       9024.11523       1.86148882    
 -0.420626789      0.270320386     -0.490909100       9024.11523       1.86148882    
 -0.479746491      0.140866295     -0.490909100       9024.11523       1.86148882    
 -0.500000000       2.84000009E-16 -0.409090906       9819.64844       1.86148858    
 -0.479746491      0.140866295     -0.409090906       9819.64844       1.86148858    
 -0.479746491      0.140866295     -0.490909100       9819.64844       1.86148858    
 -0.500000000       2.84000009E-16 -0.490909100       9819.64844       1.86148858    
  0.479746491      0.140866295     -0.490909100       10710.0020      -1.38838160    
  0.500000000       0.00000000     -0.490909100       10710.0020      -1.38838160    
  0.500000000       0.00000000     -0.572727323       10710.0020      -1.38838160    
  0.479746491      0.140866295     -0.572727323       10710.0020      -1.38838160    
  0.420626789      0.270320386     -0.490909100       9842.34277      -1.38838172    
  0.479746491      0.140866295     -0.490909100       9842.34277      -1.38838172    
  0.479746491      0.140866295     -0.572727323       9842.34277      -1.38838172    
  0.420626789      0.270320386     -0.572727323       9842.34277      -1.38838172    
  0.327430397      0.377874792     -0.490909100       8177.30859      -1.38838148    
  0.420626789      0.270320386     -0.490909100       8177.30859      -1.38838148    
  0.420626789      0.270320386     -0.572727323       8177.30859      -1.38838148    
  0.327430397      0.377874792     -0.572727323       8177.30859      -1.38838148    
  0.207707494      0.454816014     -0.490909100       5849.80615      -1.38838172    
  0.327430397      0.377874792     -0.490909100       5849.80615      -1.38838172    
  0.327430397      0.377874792     -0.572727323       5849.80615      -1.38838172    
  0.207707494      0.454816014     -0.572727323       5849.80615      -1.38838172    
   7.11574182E-02  0.494910687     -0.490909100       3048.38208      -1.38838136    
  0.207707494      0.454816014     -0.490909100       3048.38208      -1.38838136    
  0.207707494      0.454816014     -0.572727323       3048.38208      -1.38838136    
   7.11574182E-02  0.494910687     -0.572727323       3048.38208      -1.38838136    
  -7.11574182E-02  0.494910687     -0.490909100       7.25179329E-04  -2.10607719    
   7.11574182E-02  0.494910687     -0.490909100       7.25179329E-04  -2.10607719    
   7.11574182E-02  0.494910687     -0.572727323       7.25179329E-04  -2.10607719    
  -7.11574182E-02  0.494910687     -0.572727323       7.25179329E-04  -2.10607719    
 -0.207707494      0.454816014     -0.490909100       3048.38257       1.75321126    
  -7.11574182E-02  0.494910687     -0.490909100       3048.38257       1.75321126    
  -7.11574182E-02  0.494910687     -0.572727323       3048.38257       1.75321126    
 -0.207707494      0.454816014     -0.572727323       3048.38257       1.75321126    
 -0.327430397      0.377874792     -0.490909100       5849.80469       1.75321102    
 -0.207707494      0.454816014     -0.490909100       5849.80469       1.75321102    
 -0.207707494      0.454816014     -0.572727323       5849.80469       1.75321102    
 -0.327430397      0.377874792     -0.572727323       5849.80469       1.75321102    
 -0.420626789      0.270320386     -0.490909100       8177.31055       1.75321114    
 -0.327430397      0.377874792     -0.490909100       8177.31055       1.75321114    
 -0.327430397      0.377874792     -0.572727323       8177.31055       1.75321114    
 -0.420626789      0.270320386     -0.572727323       8177.31055       1.75321114    
 -0.479746491      0.140866295     -0.490909100       9842.34473       1.75321090    
 -0.420626789      0.270320386     -0.490909100       9842.34473       1.75321090    
 -0.420626789      0.270320386     -0.572727323       9842.34473       1.75321090    
 -0.479746491      0.140866295     -0.572727323       9842.34473       1.75321090    
 -0.500000000       2.84000009E-16 -0.490909100       10710.0059       1.75321102    
 -0.479746491      0.140866295     -0.490909100       10710.0059       1.75321102    
 -0.479746491      0.140866295     -0.572727323       10710.0059       1.75321102    
 -0.500000000       2.84000009E-16 -0.572727323       10710.0059       1.75321102    
  0.479746491      0.140866295     -0.572727323       11317.7852      -1.45119011    
  0.500000000       0.00000000     -0.572727323       11317.7852      -1.45119011    
  0.500000000       0.00000000     -0.654545426       11317.7852      -1.45119011    
  0.479746491      0.140866295     -0.654545426       11317.7852      -1.45119011    
  0.420626789      0.270320386     -0.572727323       10400.8936      -1.45119023    
  0.479746491      0.140866295     -0.572727323       10400.8936      -1.45119023    
  0.479746491      0.140866295     -0.654545426       10400.8936      -1.45119023    
  0.420626789      0.270320386     -0.654545426       10400.8936      -1.45119023    
  0.327430397      0.377874792     -0.572727323       8641.36816      -1.45119011    
  0.420626789      0.270320386     -0.572727323       8641.36816      -1.45119011    
  0.420626789      0.270320386     -0.654545426       8641.36816      -1.45119011    
  0.327430397      0.377874792     -0.654545426       8641.36816      -1.45119011    
  0.207707494      0.454816014     -0.572727323       6181.77686      -1.45119011    
  0.327430397      0.377874792     -0.572727323       6181.77686      -1.45119011    
  0.327430397      0.377874792     -0.654545426       6181.77686      -1.45119011    
  0.207707494      0.454816014     -0.654545426       6181.77686      -1.45119011    
   7.11574182E-02  0.494910687     -0.572727323       3221.37573      -1.45118999    
  0.207707494      0.454816014     -0.572727323       3221.37573      -1.45118999    
  0.207707494      0.454816014     -0.654545426       3221.37573      -1.45118999    
   7.11574182E-02  0.494910687     -0.654545426       3221.37573      -1.45118999    
  -7.11574182E-02  0.494910687     -0.572727323       2.01746100E-03   1.57438457    
   7.11574182E-02  0.494910687     -0.572727323       2.01746100E-03   1.57438457    
   7.11574182E-02  0.494910687     -0.654545426       2.01746100E-03   1.57438457    
  -7.11574182E-02  0.494910687     -0.654545426       2.01746100E-03   1.57438457    
 -0.207707494      0.454816014     -0.572727323       3221.37549       1.69040251    
  -7.11574182E-02  0.494910687     -0.572727323       3221.37549       1.69040251    
  -7.11574182E-02  0.494910687     -0.654545426       3221.37549       1.69040251    
 -0.207707494      0.454816014     -0.654545426       3221.37549       1.69040251    
 -0.327430397      0.377874792     -0.572727323       6181.77588       1.69040251    
 -0.207707494      0.454816014     -0.572727323       6181.77588       1.69040251    
 -0.207707494      0.454816014     -0.654545426       6181.77588       1.69040251    
 -0.327430397      0.377874792     -0.654545426       6181.77588       1.69040251    
 -0.420626789      0.270320386     -0.572727323       8641.36426       1.69040251    
 -0.327430397      0.377874792     -0.572727323       8641.36426       1.69040251    
 -0.327430397      0.377874792     -0.654545426       8641.36426       1.69040251    
 -0.420626789      0.270320386     -0.654545426       8641.36426       1.69040251    
 -0.479746491      0.140866295     -0.572727323       10400.8965       1.69040239    
 -0.420626789      0.270320386     -0.572727323       10400.8965       1.69040239    
 -0.420626789      0.270320386     -0.654545426       10400.8965       1.69040239    