 VARIABLES="X" "Y" "Z" "abs(p) (Pa)" "angle(p) (rad)"
ZONE N=    528,E =     462, F=FEPOINT, ET=QUADRILATERAL
  0.479746491      0.140866295       0.00000000       7.55604196E-06  0.878097594    
  0.500000000       0.00000000       0.00000000       7.55604196E-06  0.878097594    
  0.500000000       0.00000000      -8.18181783E-02   7.55604196E-06  0.878097594    
  0.479746491      0.140866295      -8.18181783E-02   7.55604196E-06  0.878097594    
  0.420626789      0.270320386       0.00000000       1.53499241E-05 -0.691928506    
  0.479746491      0.140866295       0.00000000       1.53499241E-05 -0.691928506    
  0.479746491      0.140866295      -8.18181783E-02   1.53499241E-05 -0.691928506    
  0.420626789      0.270320386      -8.18181783E-02   1.53499241E-05 -0.691928506    
  0.327430397      0.377874792       0.00000000       3.42984604E-05   1.18489444    
  0.420626789      0.270320386       0.00000000       3.42984604E-05   1.18489444    
  0.420626789      0.270320386      -8.18181783E-02   3.42984604E-05   1.18489444    
  0.327430397      0.377874792      -8.18181783E-02   3.42984604E-05   1.18489444    
  0.207707494      0.454816014       0.00000000       1.68191891E-05  -1.00667334    
  0.327430397      0.377874792       0.00000000       1.68191891E-05  -1.00667334    
  0.327430397      0.377874792      -8.18181783E-02   1.68191891E-05  -1.00667334    
  0.207707494      0.454816014      -8.18181783E-02   1.68191891E-05  -1.00667334    
   7.11574182E-02  0.494910687       0.00000000       2.30572750E-05   1.42353463    
  0.207707494      0.454816014       0.00000000       2.30572750E-05   1.42353463    
  0.207707494      0.454816014      -8.18181783E-02   2.30572750E-05   1.42353463    
   7.11574182E-02  0.494910687      -8.18181783E-02   2.30572750E-05   1.42353463    
  -7.11574182E-02  0.494910687       0.00000000       1.39610233E-06   2.99498606    
   7.11574182E-02  0.494910687       0.00000000       1.39610233E-06   2.99498606    
   7.11574182E-02  0.494910687      -8.18181783E-02   1.39610233E-06   2.99498606    
  -7.11574182E-02  0.494910687      -8.18181783E-02   1.39610233E-06   2.99498606    
 -0.207707494      0.454816014       0.00000000       2.20988059E-05  -1.79017353    
  -7.11574182E-02  0.494910687       0.00000000       2.20988059E-05  -1.79017353    
  -7.11574182E-02  0.494910687      -8.18181783E-02   2.20988059E-05  -1.79017353    
 -0.207707494      0.454816014      -8.18181783E-02   2.20988059E-05  -1.79017353    
 -0.327430397      0.377874792       0.00000000       1.81520663E-05   1.97817838    
 -0.207707494      0.454816014       0.00000000       1.81520663E-05   1.97817838    
 -0.207707494      0.454816014      -8.18181783E-02   1.81520663E-05   1.97817838    
 -0.327430397      0.377874792      -8.18181783E-02   1.81520663E-05   1.97817838    
 -0.420626789      0.270320386       0.00000000       3.09442657E-05  -1.83573401    
 -0.327430397      0.377874792       0.00000000       3.09442657E-05  -1.83573401    
 -0.327430397      0.377874792      -8.18181783E-02   3.09442657E-05  -1.83573401    
 -0.420626789      0.270320386      -8.18181783E-02   3.09442657E-05  -1.83573401    
 -0.479746491      0.140866295       0.00000000       1.18942908E-05   2.15882778    
 -0.420626789      0.270320386       0.00000000       1.18942908E-05   2.15882778    
 -0.420626789      0.270320386      -8.18181783E-02   1.18942908E-05   2.15882778    
 -0.479746491      0.140866295      -8.18181783E-02   1.18942908E-05   2.15882778    
 -0.500000000       2.84000009E-16   0.00000000       6.57076635E-06  -1.97184169    
 -0.479746491      0.140866295       0.00000000       6.57076635E-06  -1.97184169    
 -0.479746491      0.140866295      -8.18181783E-02   6.57076635E-06  -1.97184169    
 -0.500000000       2.84000009E-16  -8.18181783E-02   6.57076635E-06  -1.97184169    
  0.479746491      0.140866295      -8.18181783E-02   4.96514758E-06  0.953371108    
  0.500000000       0.00000000      -8.18181783E-02   4.96514758E-06  0.953371108    
  0.500000000       0.00000000     -0.163636401       4.96514758E-06  0.953371108    
  0.479746491      0.140866295     -0.163636401       4.96514758E-06  0.953371108    
  0.420626789      0.270320386      -8.18181783E-02   1.62096749E-05  -1.12174213    
  0.479746491      0.140866295      -8.18181783E-02   1.62096749E-05  -1.12174213    
  0.479746491      0.140866295     -0.163636401       1.62096749E-05  -1.12174213    
  0.420626789      0.270320386     -0.163636401       1.62096749E-05  -1.12174213    
  0.327430397      0.377874792      -8.18181783E-02   2.30506757E-05   1.23134243    
  0.420626789      0.270320386      -8.18181783E-02   2.30506757E-05   1.23134243    
  0.420626789      0.270320386     -0.163636401       2.30506757E-05   1.23134243    
  0.327430397      0.377874792     -0.163636401       2.30506757E-05   1.23134243    
  0.207707494      0.454816014      -8.18181783E-02   1.96746823E-05  -1.29638255    
  0.327430397      0.377874792      -8.18181783E-02   1.96746823E-05  -1.29638255    
  0.327430397      0.377874792     -0.163636401       1.96746823E-05  -1.29638255    
  0.207707494      0.454816014     -0.163636401       1.96746823E-05  -1.29638255    
   7.11574182E-02  0.494910687      -8.18181783E-02   1.67277212E-05   1.45158291    
  0.207707494      0.454816014      -8.18181783E-02   1.67277212E-05   1.45158291    
  0.207707494      0.454816014     -0.163636401       1.67277212E-05   1.45158291    
   7.11574182E-02  0.494910687     -0.163636401       1.67277212E-05   1.45158291    
  -7.11574182E-02  0.494910687      -8.18181783E-02   8.40313703E-07   3.07070184    
   7.11574182E-02  0.494910687      -8.18181783E-02   8.40313703E-07   3.07070184    
   7.11574182E-02  0.494910687     -0.163636401       8.40313703E-07   3.07070184    
  -7.11574182E-02  0.494910687     -0.163636401       8.40313703E-07   3.07070184    
 -0.207707494      0.454816014      -8.18181783E-02   1.62823126E-05  -1.74781322    
  -7.11574182E-02  0.494910687      -8.18181783E-02   1.62823126E-05  -1.74781322    
  -7.11574182E-02  0.494910687     -0.163636401       1.62823126E-05  -1.74781322    
 -0.207707494      0.454816014     -0.163636401       1.62823126E-05  -1.74781322    
 -0.327430397      0.377874792      -8.18181783E-02   2.05352280E-05   1.78072119    
 -0.207707494      0.454816014      -8.18181783E-02   2.05352280E-05   1.78072119    
 -0.207707494      0.454816014     -0.163636401       2.05352280E-05   1.78072119    
 -0.327430397      0.377874792     -0.163636401       2.05352280E-05   1.78072119    
 -0.420626789      0.270320386      -8.18181783E-02   2.20626316E-05  -1.79110932    
 -0.327430397      0.377874792      -8.18181783E-02   2.20626316E-05  -1.79110932    
 -0.327430397      0.377874792     -0.163636401       2.20626316E-05  -1.79110932    
 -0.420626789      0.270320386     -0.163636401       2.20626316E-05  -1.79110932    
 -0.479746491      0.140866295      -8.18181783E-02   1.30953713E-05   1.87542069    
 -0.420626789      0.270320386      -8.18181783E-02   1.30953713E-05   1.87542069    
 -0.420626789      0.270320386     -0.163636401       1.30953713E-05   1.87542069    
 -0.479746491      0.140866295     -0.163636401       1.30953713E-05   1.87542069    
 -0.500000000       2.84000009E-16  -8.18181783E-02   5.08410358E-06  -1.87593448    
 -0.479746491      0.140866295      -8.18181783E-02   5.08410358E-06  -1.87593448    
 -0.479746491      0.140866295     -0.163636401       5.08410358E-06  -1.87593448    
 -0.500000000       2.84000009E-16 -0.163636401       5.08410358E-06  -1.87593448    
  0.479746491      0.140866295     -0.163636401       1.73258741E-06  0.152809530    
  0.500000000       0.00000000     -0.163636401       1.73258741E-06  0.152809530    
  0.500000000       0.00000000     -0.245454505       1.73258741E-06  0.152809530    
  0.479746491      0.140866295     -0.245454505       1.73258741E-06  0.152809530    
  0.420626789      0.270320386     -0.163636401       2.48631768E-05  -1.40139675    
  0.479746491      0.140866295     -0.163636401       2.48631768E-05  -1.40139675    
  0.479746491      0.140866295     -0.245454505       2.48631768E-05  -1.40139675    
  0.420626789      0.270320386     -0.245454505       2.48631768E-05  -1.40139675    
  0.327430397      0.377874792     -0.163636401       7.81831750E-06  0.946339548    
  0.420626789      0.270320386     -0.163636401       7.81831750E-06  0.946339548    
  0.420626789      0.270320386     -0.245454505       7.81831750E-06  0.946339548    
  0.327430397      0.377874792     -0.245454505       7.81831750E-06  0.946339548    
  0.207707494      0.454816014     -0.163636401       2.53592698E-05  -1.44533682    
  0.327430397      0.377874792     -0.163636401       2.53592698E-05  -1.44533682    
  0.327430397      0.377874792     -0.245454505       2.53592698E-05  -1.44533682    
  0.207707494      0.454816014     -0.245454505       2.53592698E-05  -1.44533682    
   7.11574182E-02  0.494910687     -0.163636401       8.53680558E-06   1.43206406    
  0.207707494      0.454816014     -0.163636401       8.53680558E-06   1.43206406    
  0.207707494      0.454816014     -0.245454505       8.53680558E-06   1.43206406    
   7.11574182E-02  0.494910687     -0.245454505       8.53680558E-06   1.43206406    
  -7.11574182E-02  0.494910687     -0.163636401       5.11434848E-07  -2.98686051    
   7.11574182E-02  0.494910687     -0.163636401       5.11434848E-07  -2.98686051    
   7.11574182E-02  0.494910687     -0.245454505       5.11434848E-07  -2.98686051    
  -7.11574182E-02  0.494910687     -0.245454505       5.11434848E-07  -2.98686051    
 -0.207707494      0.454816014     -0.163636401       8.57824762E-06  -1.77203417    
  -7.11574182E-02  0.494910687     -0.163636401       8.57824762E-06  -1.77203417    
  -7.11574182E-02  0.494910687     -0.245454505       8.57824762E-06  -1.77203417    
 -0.207707494      0.454816014     -0.245454505       8.57824762E-06  -1.77203417    
 -0.327430397      0.377874792     -0.163636401       2.53769576E-05   1.67166471    
 -0.207707494      0.454816014     -0.163636401       2.53769576E-05   1.67166471    
 -0.207707494      0.454816014     -0.245454505       2.53769576E-05   1.67166471    
 -0.327430397      0.377874792     -0.245454505       2.53769576E-05   1.67166471    
 -0.420626789      0.270320386     -0.163636401       8.48994659E-06  -1.91650701    
 -0.327430397      0.377874792     -0.163636401       8.48994659E-06  -1.91650701    
 -0.327430397      0.377874792     -0.245454505       8.48994659E-06  -1.91650701    
 -0.420626789      0.270320386     -0.245454505       8.48994659E-06  -1.91650701    
 -0.479746491      0.140866295     -0.163636401       1.56373953E-05   1.72116923    
 -0.420626789      0.270320386     -0.163636401       1.56373953E-05   1.72116923    
 -0.420626789      0.270320386     -0.245454505       1.56373953E-05   1.72116923    
 -0.479746491      0.140866295     -0.245454505       1.56373953E-05   1.72116923    
 -0.500000000       2.84000009E-16 -0.163636401       2.19381036E-06  -1.99890447    
 -0.479746491      0.140866295     -0.163636401       2.19381036E-06  -1.99890447    
 -0.479746491      0.140866295     -0.245454505       2.19381036E-06  -1.99890447    
 -0.500000000       2.84000009E-16 -0.245454505       2.19381036E-06  -1.99890447    
  0.479746491      0.140866295     -0.245454505       1.18263688E-06  0.522901058    
  0.500000000       0.00000000     -0.245454505       1.18263688E-06  0.522901058    
  0.500000000       0.00000000     -0.327272713       1.18263688E-06  0.522901058    
  0.479746491      0.140866295     -0.327272713       1.18263688E-06  0.522901058    
  0.420626789      0.270320386     -0.245454505       2.60091147E-05  -1.47420454    
  0.479746491      0.140866295     -0.245454505       2.60091147E-05  -1.47420454    
  0.479746491      0.140866295     -0.327272713       2.60091147E-05  -1.47420454    
  0.420626789      0.270320386     -0.327272713       2.60091147E-05  -1.47420454    
  0.327430397      0.377874792     -0.245454505       1.38387859E-05  -1.37179434    
  0.420626789      0.270320386     -0.245454505       1.38387859E-05  -1.37179434    
  0.420626789      0.270320386     -0.327272713       1.38387859E-05  -1.37179434    
  0.327430397      0.377874792     -0.327272713       1.38387859E-05  -1.37179434    
  0.207707494      0.454816014     -0.245454505       3.04997011E-05  -1.50848842    
  0.327430397      0.377874792     -0.245454505       3.04997011E-05  -1.50848842    
  0.327430397      0.377874792     -0.327272713       3.04997011E-05  -1.50848842    
  0.207707494      0.454816014     -0.327272713       3.04997011E-05  -1.50848842    
   7.11574182E-02  0.494910687     -0.245454505       9.04521312E-06   1.49276507    
  0.207707494      0.454816014     -0.245454505       9.04521312E-06   1.49276507    
  0.207707494      0.454816014     -0.327272713       9.04521312E-06   1.49276507    
   7.11574182E-02  0.494910687     -0.327272713       9.04521312E-06   1.49276507    
  -7.11574182E-02  0.494910687     -0.245454505       3.69934838E-07  -2.54637337    
   7.11574182E-02  0.494910687     -0.245454505       3.69934838E-07  -2.54637337    
   7.11574182E-02  0.494910687     -0.327272713       3.69934838E-07  -2.54637337    
  -7.11574182E-02  0.494910687     -0.327272713       3.69934838E-07  -2.54637337    
 -0.207707494      0.454816014     -0.245454505       9.45549527E-06  -1.68017828    
  -7.11574182E-02  0.494910687     -0.245454505       9.45549527E-06  -1.68017828    
  -7.11574182E-02  0.494910687     -0.327272713       9.45549527E-06  -1.68017828    
 -0.207707494      0.454816014     -0.327272713       9.45549527E-06  -1.68017828    
 -0.327430397      0.377874792     -0.245454505       2.97432925E-05   1.62246096    
 -0.207707494      0.454816014     -0.245454505       2.97432925E-05   1.62246096    
 -0.207707494      0.454816014     -0.327272713       2.97432925E-05   1.62246096    
 -0.327430397      0.377874792     -0.327272713       2.97432925E-05   1.62246096    
 -0.420626789      0.270320386     -0.245454505       1.06322505E-05   1.73397839    
 -0.327430397      0.377874792     -0.245454505       1.06322505E-05   1.73397839    
 -0.327430397      0.377874792     -0.327272713       1.06322505E-05   1.73397839    
 -0.420626789      0.270320386     -0.327272713       1.06322505E-05   1.73397839    
 -0.479746491      0.140866295     -0.245454505       1.45191061E-05   1.66774106    
 -0.420626789      0.270320386     -0.245454505       1.45191061E-05   1.66774106    
 -0.420626789      0.270320386     -0.327272713       1.45191061E-05   1.66774106    
 -0.479746491      0.140866295     -0.327272713       1.45191061E-05   1.66774106    
 -0.500000000       2.84000009E-16 -0.245454505       3.09162010E-06  -1.74838293    
 -0.479746491      0.140866295     -0.245454505       3.09162010E-06  -1.74838293    
 -0.479746491      0.140866295     -0.327272713       3.09162010E-06  -1.74838293    
 -0.500000000       2.84000009E-16 -0.327272713       3.09162010E-06  -1.74838293    
  0.479746491      0.140866295     -0.327272713       2.73369506E-06  -1.34406662    
  0.500000000       0.00000000     -0.327272713       2.73369506E-06  -1.34406662    
  0.500000000       0.00000000     -0.409090906       2.73369506E-06  -1.34406662    
  0.479746491      0.140866295     -0.409090906       2.73369506E-06  -1.34406662    
  0.420626789      0.270320386     -0.327272713       3.30140938E-05  -1.52518857    
  0.479746491      0.140866295     -0.327272713       3.30140938E-05  -1.52518857    
  0.479746491      0.140866295     -0.409090906       3.30140938E-05  -1.52518857    
  0.420626789      0.270320386     -0.409090906       3.30140938E-05  -1.52518857    
  0.327430397      0.377874792     -0.327272713       5.64787797E-06  -1.27554929    
  0.420626789      0.270320386     -0.327272713       5.64787797E-06  -1.27554929    
  0.420626789      0.270320386     -0.409090906       5.64787797E-06  -1.27554929    
  0.327430397      0.377874792     -0.409090906       5.64787797E-06  -1.27554929    
  0.207707494      0.454816014     -0.327272713       3.38578684E-05  -1.53704405    
  0.327430397      0.377874792     -0.327272713       3.38578684E-05  -1.53704405    
  0.327430397      0.377874792     -0.409090906       3.38578684E-05  -1.53704405    
  0.207707494      0.454816014     -0.409090906       3.38578684E-05  -1.53704405    
   7.11574182E-02  0.494910687     -0.327272713       2.63520337E-06   1.40898371    
  0.207707494      0.454816014     -0.327272713       2.63520337E-06   1.40898371    
  0.207707494      0.454816014     -0.409090906       2.63520337E-06   1.40898371    
   7.11574182E-02  0.494910687     -0.409090906       2.63520337E-06   1.40898371    
  -7.11574182E-02  0.494910687     -0.327272713       3.73526603E-07  -2.09341574    
   7.11574182E-02  0.494910687     -0.327272713       3.73526603E-07  -2.09341574    
   7.11574182E-02  0.494910687     -0.409090906       3.73526603E-07  -2.09341574    
  -7.11574182E-02  0.494910687     -0.409090906       3.73526603E-07  -2.09341574    
 -0.207707494      0.454816014     -0.327272713       3.38633413E-06  -1.75676250    
  -7.11574182E-02  0.494910687     -0.327272713       3.38633413E-06  -1.75676250    
  -7.11574182E-02  0.494910687     -0.409090906       3.38633413E-06  -1.75676250    
 -0.207707494      0.454816014     -0.409090906       3.38633413E-06  -1.75676250    
 -0.327430397      0.377874792     -0.327272713       3.25066248E-05   1.59940755    
 -0.207707494      0.454816014     -0.327272713       3.25066248E-05   1.59940755    
 -0.207707494      0.454816014     -0.409090906       3.25066248E-05   1.59940755    
 -0.327430397      0.377874792     -0.409090906       3.25066248E-05   1.59940755    
 -0.420626789      0.270320386     -0.327272713       1.75845116E-06   2.20587111    
 -0.327430397      0.377874792     -0.327272713       1.75845116E-06   2.20587111    
 -0.327430397      0.377874792     -0.409090906       1.75845116E-06   2.20587111    
 -0.420626789      0.270320386     -0.409090906       1.75845116E-06   2.20587111    
 -0.479746491      0.140866295     -0.327272713       2.05266242E-05   1.61207390    
 -0.420626789      0.270320386     -0.327272713       2.05266242E-05   1.61207390    
 -0.420626789      0.270320386     -0.409090906       2.05266242E-05   1.61207390    
 -0.479746491      0.140866295     -0.409090906       2.05266242E-05   1.61207390    
 -0.500000000       2.84000009E-16 -0.327272713       3.79734587E-07  -2.61787510    
 -0.479746491      0.140866295     -0.327272713       3.79734587E-07  -2.61787510    
 -0.479746491      0.140866295     -0.409090906       3.79734587E-07  -2.61787510    
 -0.500000000       2.84000009E-16 -0.409090906       3.79734587E-07  -2.61787510    
  0.479746491      0.140866295     -0.409090906       3.13466535E-06  -1.45238066    
  0.500000000       0.00000000     -0.409090906       3.13466535E-06  -1.45238066    
  0.500000000       0.00000000     -0.490909100       3.13466535E-06  -1.45238066    
  0.479746491      0.140866295     -0.490909100       3.13466535E-06  -1.45238066    
  0.420626789      0.270320386     -0.409090906       3.49264010E-05  -1.54480243    
  0.479746491      0.140866295     -0.409090906       3.49264010E-05  -1.54480243    
  0.479746491      0.140866295     -0.490909100       3.49264010E-05  -1.54480243    
  0.420626789      0.270320386     -0.490909100       3.49264010E-05  -1.54480243    
  0.327430397      0.377874792     -0.409090906       9.10149629E-06  -1.46150935    
  0.420626789      0.270320386     -0.409090906       9.10149629E-06  -1.46150935    
  0.420626789      0.270320386     -0.490909100       9.10149629E-06  -1.46150935    
  0.327430397      0.377874792     -0.490909100       9.10149629E-06  -1.46150935    
  0.207707494      0.454816014     -0.409090906       3.67675748E-05  -1.55198133    
  0.327430397      0.377874792     -0.409090906       3.67675748E-05  -1.55198133    
  0.327430397      0.377874792     -0.490909100       3.67675748E-05  -1.55198133    
  0.207707494      0.454816014     -0.490909100       3.67675748E-05  -1.55198133    
   7.11574182E-02  0.494910687     -0.409090906       1.30740807E-06   1.37265718    
  0.207707494      0.454816014     -0.409090906       1.30740807E-06   1.37265718    
  0.207707494      0.454816014     -0.490909100       1.30740807E-06   1.37265718    
   7.11574182E-02  0.494910687     -0.490909100       1.30740807E-06   1.37265718    
  -7.11574182E-02  0.494910687     -0.409090906       4.37652403E-07  -1.83619463    
   7.11574182E-02  0.494910687     -0.409090906       4.37652403E-07  -1.83619463    
   7.11574182E-02  0.494910687     -0.490909100       4.37652403E-07  -1.83619463    
  -7.11574182E-02  0.494910687     -0.490909100       4.37652403E-07  -1.83619463    
 -0.207707494      0.454816014     -0.409090906       2.30898218E-06  -1.73769093    
  -7.11574182E-02  0.494910687     -0.409090906       2.30898218E-06  -1.73769093    
  -7.11574182E-02  0.494910687     -0.490909100       2.30898218E-06  -1.73769093    
 -0.207707494      0.454816014     -0.490909100       2.30898218E-06  -1.73769093    
 -0.327430397      0.377874792     -0.409090906       3.50057962E-05   1.58702290    
 -0.207707494      0.454816014     -0.409090906       3.50057962E-05   1.58702290    
 -0.207707494      0.454816014     -0.490909100       3.50057962E-05   1.58702290    
 -0.327430397      0.377874792     -0.490909100       3.50057962E-05   1.58702290    
 -0.420626789      0.270320386     -0.409090906       4.59350485E-06   1.70943475    
 -0.327430397      0.377874792     -0.409090906       4.59350485E-06   1.70943475    
 -0.327430397      0.377874792     -0.490909100       4.59350485E-06   1.70943475    
 -0.420626789      0.270320386     -0.490909100       4.59350485E-06   1.70943475    
 -0.479746491      0.140866295     -0.409090906       2.20115617E-05   1.59414506    
 -0.420626789      0.270320386     -0.409090906       2.20115617E-05   1.59414506    
 -0.420626789      0.270320386     -0.490909100       2.20115617E-05   1.59414506    
 -0.479746491      0.140866295     -0.490909100       2.20115617E-05   1.59414506    
 -0.500000000       2.84000009E-16 -0.409090906       2.17159823E-07   2.73185110    
 -0.479746491      0.140866295     -0.409090906       2.17159823E-07   2.73185110    
 -0.479746491      0.140866295     -0.490909100       2.17159823E-07   2.73185110    
 -0.500000000       2.84000009E-16 -0.490909100       2.17159823E-07   2.73185110    
  0.479746491      0.140866295     -0.490909100       4.35174172E-07  -1.02120554    
  0.500000000       0.00000000     -0.490909100       4.35174172E-07  -1.02120554    
  0.500000000       0.00000000     -0.572727323       4.35174172E-07  -1.02120554    
  0.479746491      0.140866295     -0.572727323       4.35174172E-07  -1.02120554    
  0.420626789      0.270320386     -0.490909100       3.13698656E-05  -1.55301523    
  0.479746491      0.140866295     -0.490909100       3.13698656E-05  -1.55301523    
  0.479746491      0.140866295     -0.572727323       3.13698656E-05  -1.55301523    
  0.420626789      0.270320386     -0.572727323       3.13698656E-05  -1.55301523    
  0.327430397      0.377874792     -0.490909100       2.68817039E-05  -1.54805851    
  0.420626789      0.270320386     -0.490909100       2.68817039E-05  -1.54805851    
  0.420626789      0.270320386     -0.572727323       2.68817039E-05  -1.54805851    
  0.327430397      0.377874792     -0.572727323       2.68817039E-05  -1.54805851    
  0.207707494      0.454816014     -0.490909100       3.98556658E-05  -1.56008089    
  0.327430397      0.377874792     -0.490909100       3.98556658E-05  -1.56008089    
  0.327430397      0.377874792     -0.572727323       3.98556658E-05  -1.56008089    
  0.207707494      0.454816014     -0.572727323       3.98556658E-05  -1.56008089    
   7.11574182E-02  0.494910687     -0.490909100       5.40184101E-06   1.54136312    
  0.207707494      0.454816014     -0.490909100       5.40184101E-06   1.54136312    
  0.207707494      0.454816014     -0.572727323       5.40184101E-06   1.54136312    
   7.11574182E-02  0.494910687     -0.572727323       5.40184101E-06   1.54136312    
  -7.11574182E-02  0.494910687     -0.490909100       5.06005392E-07  -1.71494615    
   7.11574182E-02  0.494910687     -0.490909100       5.06005392E-07  -1.71494615    
   7.11574182E-02  0.494910687     -0.572727323       5.06005392E-07  -1.71494615    
  -7.11574182E-02  0.494910687     -0.572727323       5.06005392E-07  -1.71494615    
 -0.207707494      0.454816014     -0.490909100       6.59485204E-06  -1.60731530    
  -7.11574182E-02  0.494910687     -0.490909100       6.59485204E-06  -1.60731530    
  -7.11574182E-02  0.494910687     -0.572727323       6.59485204E-06  -1.60731530    
 -0.207707494      0.454816014     -0.572727323       6.59485204E-06  -1.60731530    
 -0.327430397      0.377874792     -0.490909100       3.78450823E-05   1.58018172    
 -0.207707494      0.454816014     -0.490909100       3.78450823E-05   1.58018172    
 -0.207707494      0.454816014     -0.572727323       3.78450823E-05   1.58018172    
 -0.327430397      0.377874792     -0.572727323       3.78450823E-05   1.58018172    
 -0.420626789      0.270320386     -0.490909100       2.22178624E-05   1.58858168    
 -0.327430397      0.377874792     -0.490909100       2.22178624E-05   1.58858168    
 -0.327430397      0.377874792     -0.572727323       2.22178624E-05   1.58858168    
 -0.420626789      0.270320386     -0.572727323       2.22178624E-05   1.58858168    
 -0.479746491      0.140866295     -0.490909100       1.85407662E-05   1.58798552    
 -0.420626789      0.270320386     -0.490909100       1.85407662E-05   1.58798552    
 -0.420626789      0.270320386     -0.572727323       1.85407662E-05   1.58798552    
 -0.479746491      0.140866295     -0.572727323       1.85407662E-05   1.58798552    
 -0.500000000       2.84000009E-16 -0.490909100       2.62927347E-06  -1.61770010    
 -0.479746491      0.140866295     -0.490909100       2.62927347E-06  -1.61770010    
 -0.479746491      0.140866295     -0.572727323       2.62927347E-06  -1.61770010    
 -0.500000000       2.84000009E-16 -0.572727323       2.62927347E-06  -1.61770010    
  0.479746491      0.140866295     -0.572727323       8.00758130E-07   1.39277947    
  0.500000000       0.00000000     -0.572727323       8.00758130E-07   1.39277947    
  0.500000000       0.00000000     -0.654545426       8.00758130E-07   1.39277947    
  0.479746491      0.140866295     -0.654545426       8.00758130E-07   1.39277947    
  0.420626789      0.270320386     -0.572727323       3.05510985E-05  -1.55938601    
  0.479746491      0.140866295     -0.572727323       3.05510985E-05  -1.55938601    
  0.479746491      0.140866295     -0.654545426       3.05510985E-05  -1.55938601    
  0.420626789      0.270320386     -0.654545426       3.05510985E-05  -1.55938601    
  0.327430397      0.377874792     -0.572727323       2.88347710E-05  -1.55749762    
  0.420626789      0.270320386     -0.572727323       2.88347710E-05  -1.55749762    
  0.420626789      0.270320386     -0.654545426       2.88347710E-05  -1.55749762    
  0.327430397      0.377874792     -0.654545426       2.88347710E-05  -1.55749762    
  0.207707494      0.454816014     -0.572727323       4.32922825E-05  -1.56457067    
  0.327430397      0.377874792     -0.572727323       4.32922825E-05  -1.56457067    
  0.327430397      0.377874792     -0.654545426       4.32922825E-05  -1.56457067    
  0.207707494      0.454816014     -0.654545426       4.32922825E-05  -1.56457067    
   7.11574182E-02  0.494910687     -0.572727323       4.55436020E-06   1.54862237    
  0.207707494      0.454816014     -0.572727323       4.55436020E-06   1.54862237    
  0.207707494      0.454816014     -0.654545426       4.55436020E-06   1.54862237    
   7.11574182E-02  0.494910687     -0.654545426       4.55436020E-06   1.54862237    
  -7.11574182E-02  0.494910687     -0.572727323       5.64047355E-07  -1.65401816    
   7.11574182E-02  0.494910687     -0.572727323       5.64047355E-07  -1.65401816    
   7.11574182E-02  0.494910687     -0.654545426       5.64047355E-07  -1.65401816    
  -7.11574182E-02  0.494910687     -0.654545426       5.64047355E-07  -1.65401816    
 -0.207707494      0.454816014     -0.572727323       5.88106195E-06  -1.59720027    
  -7.11574182E-02  0.494910687     -0.572727323       5.88106195E-06  -1.59720027    
  -7.11574182E-02  0.494910687     -0.654545426       5.88106195E-06  -1.59720027    
 -0.207707494      0.454816014     -0.654545426       5.88106195E-06  -1.59720027    
 -0.327430397      0.377874792     -0.572727323       4.11602341E-05   1.57634330    
 -0.207707494      0.454816014     -0.572727323       4.11602341E-05   1.57634330    
 -0.207707494      0.454816014     -0.654545426       4.11602341E-05   1.57634330    
 -0.327430397      0.377874792     -0.654545426       4.11602341E-05   1.57634330    
 -0.420626789      0.270320386     -0.572727323       2.43548729E-05   1.58116364    
 -0.327430397      0.377874792     -0.572727323       2.43548729E-05   1.58116364    
 -0.327430397      0.377874792     -0.654545426       2.43548729E-05   1.58116364    
 -0.420626789      0.270320386     -0.654545426       2.43548729E-05   1.58116364    
 -0.479746491      0.140866295     -0.572727323       1.88799386E-05   1.58152544    
 -0.420626789      0.270320386     -0.572727323       1.88799386E-05   1.58152544    
 -0.420626789      0.270320386     -0.654545426       1.88799386E-05   1.58152544    