 VARIABLES="X" "Y" "Z" "abs(p) (Pa)" "angle(p) (rad)"
ZONE N=    528,E =     462, F=FEPOINT, ET=QUADRILATERAL
  0.479746491      0.140866295       0.00000000       875.696960      -1.47980142    
  0.500000000       0.00000000       0.00000000       875.696960      -1.47980142    
  0.500000000       0.00000000      -8.18181783E-02   875.696960      -1.47980142    
  0.479746491      0.140866295      -8.18181783E-02   875.696960      -1.47980142    
  0.420626789      0.270320386       0.00000000       804.753113      -1.47980154    
  0.479746491      0.140866295       0.00000000       804.753113      -1.47980154    
  0.479746491      0.140866295      -8.18181783E-02   804.753113      -1.47980154    
  0.420626789      0.270320386      -8.18181783E-02   804.753113      -1.47980154    
  0.327430397      0.377874792       0.00000000       668.613220      -1.47980142    
  0.420626789      0.270320386       0.00000000       668.613220      -1.47980142    
  0.420626789      0.270320386      -8.18181783E-02   668.613220      -1.47980142    
  0.327430397      0.377874792      -8.18181783E-02   668.613220      -1.47980142    
  0.207707494      0.454816014       0.00000000       478.306183      -1.47980154    
  0.327430397      0.377874792       0.00000000       478.306183      -1.47980154    
  0.327430397      0.377874792      -8.18181783E-02   478.306183      -1.47980154    
  0.207707494      0.454816014      -8.18181783E-02   478.306183      -1.47980154    
   7.11574182E-02  0.494910687       0.00000000       249.249329      -1.47980130    
  0.207707494      0.454816014       0.00000000       249.249329      -1.47980130    
  0.207707494      0.454816014      -8.18181783E-02   249.249329      -1.47980130    
   7.11574182E-02  0.494910687      -8.18181783E-02   249.249329      -1.47980130    
  -7.11574182E-02  0.494910687       0.00000000       8.60938089E-05 -0.702355504    
   7.11574182E-02  0.494910687       0.00000000       8.60938089E-05 -0.702355504    
   7.11574182E-02  0.494910687      -8.18181783E-02   8.60938089E-05 -0.702355504    
  -7.11574182E-02  0.494910687      -8.18181783E-02   8.60938089E-05 -0.702355504    
 -0.207707494      0.454816014       0.00000000       249.249313       1.66179085    
  -7.11574182E-02  0.494910687       0.00000000       249.249313       1.66179085    
  -7.11574182E-02  0.494910687      -8.18181783E-02   249.249313       1.66179085    
 -0.207707494      0.454816014      -8.18181783E-02   249.249313       1.66179085    
 -0.327430397      0.377874792       0.00000000       478.306000       1.66179097    
 -0.207707494      0.454816014       0.00000000       478.306000       1.66179097    
 -0.207707494      0.454816014      -8.18181783E-02   478.306000       1.66179097    
 -0.327430397      0.377874792      -8.18181783E-02   478.306000       1.66179097    
 -0.420626789      0.270320386       0.00000000       668.613098       1.66179097    
 -0.327430397      0.377874792       0.00000000       668.613098       1.66179097    
 -0.327430397      0.377874792      -8.18181783E-02   668.613098       1.66179097    
 -0.420626789      0.270320386      -8.18181783E-02   668.613098       1.66179097    
 -0.479746491      0.140866295       0.00000000       804.753296       1.66179097    
 -0.420626789      0.270320386       0.00000000       804.753296       1.66179097    
 -0.420626789      0.270320386      -8.18181783E-02   804.753296       1.66179097    
 -0.479746491      0.140866295      -8.18181783E-02   804.753296       1.66179097    
 -0.500000000       2.84000009E-16   0.00000000       875.697021       1.66179109    
 -0.479746491      0.140866295       0.00000000       875.697021       1.66179109    
 -0.479746491      0.140866295      -8.18181783E-02   875.697021       1.66179109    
 -0.500000000       2.84000009E-16  -8.18181783E-02   875.697021       1.66179109    
  0.479746491      0.140866295      -8.18181783E-02   862.598267      -1.48010373    
  0.500000000       0.00000000      -8.18181783E-02   862.598267      -1.48010373    
  0.500000000       0.00000000     -0.163636401       862.598267      -1.48010373    
  0.479746491      0.140866295     -0.163636401       862.598267      -1.48010373    
  0.420626789      0.270320386      -8.18181783E-02   792.715515      -1.48010373    
  0.479746491      0.140866295      -8.18181783E-02   792.715515      -1.48010373    
  0.479746491      0.140866295     -0.163636401       792.715515      -1.48010373    
  0.420626789      0.270320386     -0.163636401       792.715515      -1.48010373    
  0.327430397      0.377874792      -8.18181783E-02   658.612305      -1.48010385    
  0.420626789      0.270320386      -8.18181783E-02   658.612305      -1.48010385    
  0.420626789      0.270320386     -0.163636401       658.612305      -1.48010385    
  0.327430397      0.377874792     -0.163636401       658.612305      -1.48010385    
  0.207707494      0.454816014      -8.18181783E-02   471.151520      -1.48010385    
  0.327430397      0.377874792      -8.18181783E-02   471.151520      -1.48010385    
  0.327430397      0.377874792     -0.163636401       471.151520      -1.48010385    
  0.207707494      0.454816014     -0.163636401       471.151520      -1.48010385    
   7.11574182E-02  0.494910687      -8.18181783E-02   245.520889      -1.48010349    
  0.207707494      0.454816014      -8.18181783E-02   245.520889      -1.48010349    
  0.207707494      0.454816014     -0.163636401       245.520889      -1.48010349    
   7.11574182E-02  0.494910687     -0.163636401       245.520889      -1.48010349    
  -7.11574182E-02  0.494910687      -8.18181783E-02   5.18752095E-05 -0.871682942    
   7.11574182E-02  0.494910687      -8.18181783E-02   5.18752095E-05 -0.871682942    
   7.11574182E-02  0.494910687     -0.163636401       5.18752095E-05 -0.871682942    
  -7.11574182E-02  0.494910687     -0.163636401       5.18752095E-05 -0.871682942    
 -0.207707494      0.454816014      -8.18181783E-02   245.520935       1.66148853    
  -7.11574182E-02  0.494910687      -8.18181783E-02   245.520935       1.66148853    
  -7.11574182E-02  0.494910687     -0.163636401       245.520935       1.66148853    
 -0.207707494      0.454816014     -0.163636401       245.520935       1.66148853    
 -0.327430397      0.377874792      -8.18181783E-02   471.151337       1.66148877    
 -0.207707494      0.454816014      -8.18181783E-02   471.151337       1.66148877    
 -0.207707494      0.454816014     -0.163636401       471.151337       1.66148877    
 -0.327430397      0.377874792     -0.163636401       471.151337       1.66148877    
 -0.420626789      0.270320386      -8.18181783E-02   658.612061       1.66148877    
 -0.327430397      0.377874792      -8.18181783E-02   658.612061       1.66148877    
 -0.327430397      0.377874792     -0.163636401       658.612061       1.66148877    
 -0.420626789      0.270320386     -0.163636401       658.612061       1.66148877    
 -0.479746491      0.140866295      -8.18181783E-02   792.715393       1.66148877    
 -0.420626789      0.270320386      -8.18181783E-02   792.715393       1.66148877    
 -0.420626789      0.270320386     -0.163636401       792.715393       1.66148877    
 -0.479746491      0.140866295     -0.163636401       792.715393       1.66148877    
 -0.500000000       2.84000009E-16  -8.18181783E-02   862.598267       1.66148877    
 -0.479746491      0.140866295      -8.18181783E-02   862.598267       1.66148877    
 -0.479746491      0.140866295     -0.163636401       862.598267       1.66148877    
 -0.500000000       2.84000009E-16 -0.163636401       862.598267       1.66148877    
  0.479746491      0.140866295     -0.163636401       849.875061      -1.48042357    
  0.500000000       0.00000000     -0.163636401       849.875061      -1.48042357    
  0.500000000       0.00000000     -0.245454505       849.875061      -1.48042357    
  0.479746491      0.140866295     -0.245454505       849.875061      -1.48042357    
  0.420626789      0.270320386     -0.163636401       781.023193      -1.48042345    
  0.479746491      0.140866295     -0.163636401       781.023193      -1.48042345    
  0.479746491      0.140866295     -0.245454505       781.023193      -1.48042345    
  0.420626789      0.270320386     -0.245454505       781.023193      -1.48042345    
  0.327430397      0.377874792     -0.163636401       648.897278      -1.48042345    
  0.420626789      0.270320386     -0.163636401       648.897278      -1.48042345    
  0.420626789      0.270320386     -0.245454505       648.897278      -1.48042345    
  0.327430397      0.377874792     -0.245454505       648.897278      -1.48042345    
  0.207707494      0.454816014     -0.163636401       464.201996      -1.48042345    
  0.327430397      0.377874792     -0.163636401       464.201996      -1.48042345    
  0.327430397      0.377874792     -0.245454505       464.201996      -1.48042345    
  0.207707494      0.454816014     -0.245454505       464.201996      -1.48042345    
   7.11574182E-02  0.494910687     -0.163636401       241.899582      -1.48042333    
  0.207707494      0.454816014     -0.163636401       241.899582      -1.48042333    
  0.207707494      0.454816014     -0.245454505       241.899582      -1.48042333    
   7.11574182E-02  0.494910687     -0.245454505       241.899582      -1.48042333    
  -7.11574182E-02  0.494910687     -0.163636401       5.82999091E-05 -0.739206612    
   7.11574182E-02  0.494910687     -0.163636401       5.82999091E-05 -0.739206612    
   7.11574182E-02  0.494910687     -0.245454505       5.82999091E-05 -0.739206612    
  -7.11574182E-02  0.494910687     -0.245454505       5.82999091E-05 -0.739206612    
 -0.207707494      0.454816014     -0.163636401       241.899536       1.66116893    
  -7.11574182E-02  0.494910687     -0.163636401       241.899536       1.66116893    
  -7.11574182E-02  0.494910687     -0.245454505       241.899536       1.66116893    
 -0.207707494      0.454816014     -0.245454505       241.899536       1.66116893    
 -0.327430397      0.377874792     -0.163636401       464.201782       1.66116893    
 -0.207707494      0.454816014     -0.163636401       464.201782       1.66116893    
 -0.207707494      0.454816014     -0.245454505       464.201782       1.66116893    
 -0.327430397      0.377874792     -0.245454505       464.201782       1.66116893    
 -0.420626789      0.270320386     -0.163636401       648.897400       1.66116905    
 -0.327430397      0.377874792     -0.163636401       648.897400       1.66116905    
 -0.327430397      0.377874792     -0.245454505       648.897400       1.66116905    
 -0.420626789      0.270320386     -0.245454505       648.897400       1.66116905    
 -0.479746491      0.140866295     -0.163636401       781.023193       1.66116893    
 -0.420626789      0.270320386     -0.163636401       781.023193       1.66116893    
 -0.420626789      0.270320386     -0.245454505       781.023193       1.66116893    
 -0.479746491      0.140866295     -0.245454505       781.023193       1.66116893    
 -0.500000000       2.84000009E-16 -0.163636401       849.875061       1.66116893    
 -0.479746491      0.140866295     -0.163636401       849.875061       1.66116893    
 -0.479746491      0.140866295     -0.245454505       849.875061       1.66116893    
 -0.500000000       2.84000009E-16 -0.245454505       849.875061       1.66116893    
  0.479746491      0.140866295     -0.245454505       837.436401      -1.48071170    
  0.500000000       0.00000000     -0.245454505       837.436401      -1.48071170    
  0.500000000       0.00000000     -0.327272713       837.436401      -1.48071170    
  0.479746491      0.140866295     -0.327272713       837.436401      -1.48071170    
  0.420626789      0.270320386     -0.245454505       769.591797      -1.48071158    
  0.479746491      0.140866295     -0.245454505       769.591797      -1.48071158    
  0.479746491      0.140866295     -0.327272713       769.591797      -1.48071158    
  0.420626789      0.270320386     -0.327272713       769.591797      -1.48071158    
  0.327430397      0.377874792     -0.245454505       639.400391      -1.48071170    
  0.420626789      0.270320386     -0.245454505       639.400391      -1.48071170    
  0.420626789      0.270320386     -0.327272713       639.400391      -1.48071170    
  0.327430397      0.377874792     -0.327272713       639.400391      -1.48071170    
  0.207707494      0.454816014     -0.245454505       457.407928      -1.48071158    
  0.327430397      0.377874792     -0.245454505       457.407928      -1.48071158    
  0.327430397      0.377874792     -0.327272713       457.407928      -1.48071158    
  0.207707494      0.454816014     -0.327272713       457.407928      -1.48071158    
   7.11574182E-02  0.494910687     -0.245454505       238.359085      -1.48071134    
  0.207707494      0.454816014     -0.245454505       238.359085      -1.48071134    
  0.207707494      0.454816014     -0.327272713       238.359085      -1.48071134    
   7.11574182E-02  0.494910687     -0.327272713       238.359085      -1.48071134    
  -7.11574182E-02  0.494910687     -0.245454505       7.66121593E-05 -0.738345146    
   7.11574182E-02  0.494910687     -0.245454505       7.66121593E-05 -0.738345146    
   7.11574182E-02  0.494910687     -0.327272713       7.66121593E-05 -0.738345146    
  -7.11574182E-02  0.494910687     -0.327272713       7.66121593E-05 -0.738345146    
 -0.207707494      0.454816014     -0.245454505       238.359070       1.66088080    
  -7.11574182E-02  0.494910687     -0.245454505       238.359070       1.66088080    
  -7.11574182E-02  0.494910687     -0.327272713       238.359070       1.66088080    
 -0.207707494      0.454816014     -0.327272713       238.359070       1.66088080    
 -0.327430397      0.377874792     -0.245454505       457.407837       1.66088092    
 -0.207707494      0.454816014     -0.245454505       457.407837       1.66088092    
 -0.207707494      0.454816014     -0.327272713       457.407837       1.66088092    
 -0.327430397      0.377874792     -0.327272713       457.407837       1.66088092    
 -0.420626789      0.270320386     -0.245454505       639.400330       1.66088092    
 -0.327430397      0.377874792     -0.245454505       639.400330       1.66088092    
 -0.327430397      0.377874792     -0.327272713       639.400330       1.66088092    
 -0.420626789      0.270320386     -0.327272713       639.400330       1.66088092    
 -0.479746491      0.140866295     -0.245454505       769.591919       1.66088092    
 -0.420626789      0.270320386     -0.245454505       769.591919       1.66088092    
 -0.420626789      0.270320386     -0.327272713       769.591919       1.66088092    
 -0.479746491      0.140866295     -0.327272713       769.591919       1.66088092    
 -0.500000000       2.84000009E-16 -0.245454505       837.436462       1.66088092    
 -0.479746491      0.140866295     -0.245454505       837.436462       1.66088092    
 -0.479746491      0.140866295     -0.327272713       837.436462       1.66088092    
 -0.500000000       2.84000009E-16 -0.327272713       837.436462       1.66088092    
  0.479746491      0.140866295     -0.327272713       824.566895      -1.48090565    
  0.500000000       0.00000000     -0.327272713       824.566895      -1.48090565    
  0.500000000       0.00000000     -0.409090906       824.566895      -1.48090565    
  0.479746491      0.140866295     -0.409090906       824.566895      -1.48090565    
  0.420626789      0.270320386     -0.327272713       757.765564      -1.48090553    
  0.479746491      0.140866295     -0.327272713       757.765564      -1.48090553    
  0.479746491      0.140866295     -0.409090906       757.765564      -1.48090553    
  0.420626789      0.270320386     -0.409090906       757.765564      -1.48090553    
  0.327430397      0.377874792     -0.327272713       629.574036      -1.48090553    
  0.420626789      0.270320386     -0.327272713       629.574036      -1.48090553    
  0.420626789      0.270320386     -0.409090906       629.574036      -1.48090553    
  0.327430397      0.377874792     -0.409090906       629.574036      -1.48090553    
  0.207707494      0.454816014     -0.327272713       450.378876      -1.48090565    
  0.327430397      0.377874792     -0.327272713       450.378876      -1.48090565    
  0.327430397      0.377874792     -0.409090906       450.378876      -1.48090565    
  0.207707494      0.454816014     -0.409090906       450.378876      -1.48090565    
   7.11574182E-02  0.494910687     -0.327272713       234.696274      -1.48090553    
  0.207707494      0.454816014     -0.327272713       234.696274      -1.48090553    
  0.207707494      0.454816014     -0.409090906       234.696274      -1.48090553    
   7.11574182E-02  0.494910687     -0.409090906       234.696274      -1.48090553    
  -7.11574182E-02  0.494910687     -0.327272713       5.69911463E-05 -0.319241971    
   7.11574182E-02  0.494910687     -0.327272713       5.69911463E-05 -0.319241971    
   7.11574182E-02  0.494910687     -0.409090906       5.69911463E-05 -0.319241971    
  -7.11574182E-02  0.494910687     -0.409090906       5.69911463E-05 -0.319241971    
 -0.207707494      0.454816014     -0.327272713       234.696274       1.66068673    
  -7.11574182E-02  0.494910687     -0.327272713       234.696274       1.66068673    
  -7.11574182E-02  0.494910687     -0.409090906       234.696274       1.66068673    
 -0.207707494      0.454816014     -0.409090906       234.696274       1.66068673    
 -0.327430397      0.377874792     -0.327272713       450.378662       1.66068685    
 -0.207707494      0.454816014     -0.327272713       450.378662       1.66068685    
 -0.207707494      0.454816014     -0.409090906       450.378662       1.66068685    
 -0.327430397      0.377874792     -0.409090906       450.378662       1.66068685    
 -0.420626789      0.270320386     -0.327272713       629.574158       1.66068685    
 -0.327430397      0.377874792     -0.327272713       629.574158       1.66068685    
 -0.327430397      0.377874792     -0.409090906       629.574158       1.66068685    
 -0.420626789      0.270320386     -0.409090906       629.574158       1.66068685    
 -0.479746491      0.140866295     -0.327272713       757.765442       1.66068685    
 -0.420626789      0.270320386     -0.327272713       757.765442       1.66068685    
 -0.420626789      0.270320386     -0.409090906       757.765442       1.66068685    
 -0.479746491      0.140866295     -0.409090906       757.765442       1.66068685    
 -0.500000000       2.84000009E-16 -0.327272713       824.566589       1.66068697    
 -0.479746491      0.140866295     -0.327272713       824.566589       1.66068697    
 -0.479746491      0.140866295     -0.409090906       824.566589       1.66068697    
 -0.500000000       2.84000009E-16 -0.409090906       824.566589       1.66068697    
  0.479746491      0.140866295     -0.409090906       810.526184      -1.48094702    
  0.500000000       0.00000000     -0.409090906       810.526184      -1.48094702    
  0.500000000       0.00000000     -0.490909100       810.526184      -1.48094702    
  0.479746491      0.140866295     -0.490909100       810.526184      -1.48094702    
  0.420626789      0.270320386     -0.409090906       744.862000      -1.48094690    
  0.479746491      0.140866295     -0.409090906       744.862000      -1.48094690    
  0.479746491      0.140866295     -0.490909100       744.862000      -1.48094690    
  0.420626789      0.270320386     -0.490909100       744.862000      -1.48094690    
  0.327430397      0.377874792     -0.409090906       618.853699      -1.48094690    
  0.420626789      0.270320386     -0.409090906       618.853699      -1.48094690    
  0.420626789      0.270320386     -0.490909100       618.853699      -1.48094690    
  0.327430397      0.377874792     -0.490909100       618.853699      -1.48094690    
  0.207707494      0.454816014     -0.409090906       442.709534      -1.48094690    
  0.327430397      0.377874792     -0.409090906       442.709534      -1.48094690    
  0.327430397      0.377874792     -0.490909100       442.709534      -1.48094690    
  0.207707494      0.454816014     -0.490909100       442.709534      -1.48094690    
   7.11574182E-02  0.494910687     -0.409090906       230.699600      -1.48094690    
  0.207707494      0.454816014     -0.409090906       230.699600      -1.48094690    
  0.207707494      0.454816014     -0.490909100       230.699600      -1.48094690    
   7.11574182E-02  0.494910687     -0.490909100       230.699600      -1.48094690    
  -7.11574182E-02  0.494910687     -0.409090906       5.86840033E-05  -1.09916770    
   7.11574182E-02  0.494910687     -0.409090906       5.86840033E-05  -1.09916770    
   7.11574182E-02  0.494910687     -0.490909100       5.86840033E-05  -1.09916770    
  -7.11574182E-02  0.494910687     -0.490909100       5.86840033E-05  -1.09916770    
 -0.207707494      0.454816014     -0.409090906       230.699463       1.66064537    
  -7.11574182E-02  0.494910687     -0.409090906       230.699463       1.66064537    
  -7.11574182E-02  0.494910687     -0.490909100       230.699463       1.66064537    
 -0.207707494      0.454816014     -0.490909100       230.699463       1.66064537    
 -0.327430397      0.377874792     -0.409090906       442.709412       1.66064548    
 -0.207707494      0.454816014     -0.409090906       442.709412       1.66064548    
 -0.207707494      0.454816014     -0.490909100       442.709412       1.66064548    
 -0.327430397      0.377874792     -0.490909100       442.709412       1.66064548    
 -0.420626789      0.270320386     -0.409090906       618.853516       1.66064560    
 -0.327430397      0.377874792     -0.409090906       618.853516       1.66064560    
 -0.327430397      0.377874792     -0.490909100       618.853516       1.66064560    
 -0.420626789      0.270320386     -0.490909100       618.853516       1.66064560    
 -0.479746491      0.140866295     -0.409090906       744.862000       1.66064548    
 -0.420626789      0.270320386     -0.409090906       744.862000       1.66064548    
 -0.420626789      0.270320386     -0.490909100       744.862000       1.66064548    
 -0.479746491      0.140866295     -0.490909100       744.862000       1.66064548    
 -0.500000000       2.84000009E-16 -0.409090906       810.526184       1.66064560    
 -0.479746491      0.140866295     -0.409090906       810.526184       1.66064560    
 -0.479746491      0.140866295     -0.490909100       810.526184       1.66064560    
 -0.500000000       2.84000009E-16 -0.490909100       810.526184       1.66064560    
  0.479746491      0.140866295     -0.490909100       794.208862      -1.48075569    
  0.500000000       0.00000000     -0.490909100       794.208862      -1.48075569    
  0.500000000       0.00000000     -0.572727323       794.208862      -1.48075569    
  0.479746491      0.140866295     -0.572727323       794.208862      -1.48075569    
  0.420626789      0.270320386     -0.490909100       729.866821      -1.48075569    
  0.479746491      0.140866295     -0.490909100       729.866821      -1.48075569    
  0.479746491      0.140866295     -0.572727323       729.866821      -1.48075569    
  0.420626789      0.270320386     -0.572727323       729.866821      -1.48075569    
  0.327430397      0.377874792     -0.490909100       606.395325      -1.48075569    
  0.420626789      0.270320386     -0.490909100       606.395325      -1.48075569    
  0.420626789      0.270320386     -0.572727323       606.395325      -1.48075569    
  0.327430397      0.377874792     -0.572727323       606.395325      -1.48075569    
  0.207707494      0.454816014     -0.490909100       433.797089      -1.48075569    
  0.327430397      0.377874792     -0.490909100       433.797089      -1.48075569    
  0.327430397      0.377874792     -0.572727323       433.797089      -1.48075569    
  0.207707494      0.454816014     -0.572727323       433.797089      -1.48075569    
   7.11574182E-02  0.494910687     -0.490909100       226.055359      -1.48075569    
  0.207707494      0.454816014     -0.490909100       226.055359      -1.48075569    
  0.207707494      0.454816014     -0.572727323       226.055359      -1.48075569    
   7.11574182E-02  0.494910687     -0.572727323       226.055359      -1.48075569    
  -7.11574182E-02  0.494910687     -0.490909100       6.34548778E-05 -0.397413462    
   7.11574182E-02  0.494910687     -0.490909100       6.34548778E-05 -0.397413462    
   7.11574182E-02  0.494910687     -0.572727323       6.34548778E-05 -0.397413462    
  -7.11574182E-02  0.494910687     -0.572727323       6.34548778E-05 -0.397413462    
 -0.207707494      0.454816014     -0.490909100       226.055222       1.66083670    
  -7.11574182E-02  0.494910687     -0.490909100       226.055222       1.66083670    
  -7.11574182E-02  0.494910687     -0.572727323       226.055222       1.66083670    
 -0.207707494      0.454816014     -0.572727323       226.055222       1.66083670    
 -0.327430397      0.377874792     -0.490909100       433.796967       1.66083682    
 -0.207707494      0.454816014     -0.490909100       433.796967       1.66083682    
 -0.207707494      0.454816014     -0.572727323       433.796967       1.66083682    
 -0.327430397      0.377874792     -0.572727323       433.796967       1.66083682    
 -0.420626789      0.270320386     -0.490909100       606.395264       1.66083682    
 -0.327430397      0.377874792     -0.490909100       606.395264       1.66083682    
 -0.327430397      0.377874792     -0.572727323       606.395264       1.66083682    
 -0.420626789      0.270320386     -0.572727323       606.395264       1.66083682    
 -0.479746491      0.140866295     -0.490909100       729.866699       1.66083682    
 -0.420626789      0.270320386     -0.490909100       729.866699       1.66083682    
 -0.420626789      0.270320386     -0.572727323       729.866699       1.66083682    
 -0.479746491      0.140866295     -0.572727323       729.866699       1.66083682    
 -0.500000000       2.84000009E-16 -0.490909100       794.208740       1.66083694    
 -0.479746491      0.140866295     -0.490909100       794.208740       1.66083694    
 -0.479746491      0.140866295     -0.572727323       794.208740       1.66083694    
 -0.500000000       2.84000009E-16 -0.572727323       794.208740       1.66083694    
  0.479746491      0.140866295     -0.572727323       774.013184      -1.48021388    
  0.500000000       0.00000000     -0.572727323       774.013184      -1.48021388    
  0.500000000       0.00000000     -0.654545426       774.013184      -1.48021388    
  0.479746491      0.140866295     -0.654545426       774.013184      -1.48021388    
  0.420626789      0.270320386     -0.572727323       711.307495      -1.48021400    
  0.479746491      0.140866295     -0.572727323       711.307495      -1.48021400    
  0.479746491      0.140866295     -0.654545426       711.307495      -1.48021400    
  0.420626789      0.270320386     -0.654545426       711.307495      -1.48021400    
  0.327430397      0.377874792     -0.572727323       590.975281      -1.48021388    
  0.420626789      0.270320386     -0.572727323       590.975281      -1.48021388    
  0.420626789      0.270320386     -0.654545426       590.975281      -1.48021388    
  0.327430397      0.377874792     -0.654545426       590.975281      -1.48021388    
  0.207707494      0.454816014     -0.572727323       422.766113      -1.48021388    
  0.327430397      0.377874792     -0.572727323       422.766113      -1.48021388    
  0.327430397      0.377874792     -0.654545426       422.766113      -1.48021388    
  0.207707494      0.454816014     -0.654545426       422.766113      -1.48021388    
   7.11574182E-02  0.494910687     -0.572727323       220.307098      -1.48021376    
  0.207707494      0.454816014     -0.572727323       220.307098      -1.48021376    
  0.207707494      0.454816014     -0.654545426       220.307098      -1.48021376    
   7.11574182E-02  0.494910687     -0.654545426       220.307098      -1.48021376    
  -7.11574182E-02  0.494910687     -0.572727323       4.55725713E-05 -0.387816817    
   7.11574182E-02  0.494910687     -0.572727323       4.55725713E-05 -0.387816817    
   7.11574182E-02  0.494910687     -0.654545426       4.55725713E-05 -0.387816817    
  -7.11574182E-02  0.494910687     -0.654545426       4.55725713E-05 -0.387816817    
 -0.207707494      0.454816014     -0.572727323       220.306946       1.66137838    
  -7.11574182E-02  0.494910687     -0.572727323       220.306946       1.66137838    
  -7.11574182E-02  0.494910687     -0.654545426       220.306946       1.66137838    
 -0.207707494      0.454816014     -0.654545426       220.306946       1.66137838    
 -0.327430397      0.377874792     -0.572727323       422.765991       1.66137862    
 -0.207707494      0.454816014     -0.572727323       422.765991       1.66137862    
 -0.207707494      0.454816014     -0.654545426       422.765991       1.66137862    
 -0.327430397      0.377874792     -0.654545426       422.765991       1.66137862    
 -0.420626789      0.270320386     -0.572727323       590.975281       1.66137862    
 -0.327430397      0.377874792     -0.572727323       590.975281       1.66137862    
 -0.327430397      0.377874792     -0.654545426       590.975281       1.66137862    
 -0.420626789      0.270320386     -0.654545426       590.975281       1.66137862    
 -0.479746491      0.140866295     -0.572727323       711.307434       1.66137850    
 -0.420626789      0.270320386     -0.572727323       711.307434       1.66137850    
 -0.420626789      0.270320386     -0.654545426       711.307434       1.66137850    