 VARIABLES="X" "Y" "Z" "abs(p) (Pa)" "angle(p) (rad)"
ZONE N=    528,E =     462, F=FEPOINT, ET=QUADRILATERAL
  0.479746491      0.140866295       0.00000000       385.836121      -2.34213567    
  0.500000000       0.00000000       0.00000000       385.836121      -2.34213567    
  0.500000000       0.00000000      -8.18181783E-02   385.836121      -2.34213567    
  0.479746491      0.140866295      -8.18181783E-02   385.836121      -2.34213567    
  0.420626789      0.270320386       0.00000000       354.577728      -2.34213781    
  0.479746491      0.140866295       0.00000000       354.577728      -2.34213781    
  0.479746491      0.140866295      -8.18181783E-02   354.577728      -2.34213781    
  0.420626789      0.270320386      -8.18181783E-02   354.577728      -2.34213781    
  0.327430397      0.377874792       0.00000000       294.594452      -2.34214163    
  0.420626789      0.270320386       0.00000000       294.594452      -2.34214163    
  0.420626789      0.270320386      -8.18181783E-02   294.594452      -2.34214163    
  0.327430397      0.377874792      -8.18181783E-02   294.594452      -2.34214163    
  0.207707494      0.454816014       0.00000000       210.743683      -2.34213448    
  0.327430397      0.377874792       0.00000000       210.743683      -2.34213448    
  0.327430397      0.377874792      -8.18181783E-02   210.743683      -2.34213448    
  0.207707494      0.454816014      -8.18181783E-02   210.743683      -2.34213448    
   7.11574182E-02  0.494910687       0.00000000       109.820900      -2.34212852    
  0.207707494      0.454816014       0.00000000       109.820900      -2.34212852    
  0.207707494      0.454816014      -8.18181783E-02   109.820900      -2.34212852    
   7.11574182E-02  0.494910687      -8.18181783E-02   109.820900      -2.34212852    
  -7.11574182E-02  0.494910687       0.00000000       2.40740264E-04  0.637608469    
   7.11574182E-02  0.494910687       0.00000000       2.40740264E-04  0.637608469    
   7.11574182E-02  0.494910687      -8.18181783E-02   2.40740264E-04  0.637608469    
  -7.11574182E-02  0.494910687      -8.18181783E-02   2.40740264E-04  0.637608469    
 -0.207707494      0.454816014       0.00000000       109.820465      0.799457014    
  -7.11574182E-02  0.494910687       0.00000000       109.820465      0.799457014    
  -7.11574182E-02  0.494910687      -8.18181783E-02   109.820465      0.799457014    
 -0.207707494      0.454816014      -8.18181783E-02   109.820465      0.799457014    
 -0.327430397      0.377874792       0.00000000       210.743317      0.799454868    
 -0.207707494      0.454816014       0.00000000       210.743317      0.799454868    
 -0.207707494      0.454816014      -8.18181783E-02   210.743317      0.799454868    
 -0.327430397      0.377874792      -8.18181783E-02   210.743317      0.799454868    
 -0.420626789      0.270320386       0.00000000       294.593964      0.799452782    
 -0.327430397      0.377874792       0.00000000       294.593964      0.799452782    
 -0.327430397      0.377874792      -8.18181783E-02   294.593964      0.799452782    
 -0.420626789      0.270320386      -8.18181783E-02   294.593964      0.799452782    
 -0.479746491      0.140866295       0.00000000       354.578308      0.799454272    
 -0.420626789      0.270320386       0.00000000       354.578308      0.799454272    
 -0.420626789      0.270320386      -8.18181783E-02   354.578308      0.799454272    
 -0.479746491      0.140866295      -8.18181783E-02   354.578308      0.799454272    
 -0.500000000       2.84000009E-16   0.00000000       385.836456      0.799454987    
 -0.479746491      0.140866295       0.00000000       385.836456      0.799454987    
 -0.479746491      0.140866295      -8.18181783E-02   385.836456      0.799454987    
 -0.500000000       2.84000009E-16  -8.18181783E-02   385.836456      0.799454987    
  0.479746491      0.140866295      -8.18181783E-02   118.329147       2.98965096    
  0.500000000       0.00000000      -8.18181783E-02   118.329147       2.98965096    
  0.500000000       0.00000000     -0.163636401       118.329147       2.98965096    
  0.479746491      0.140866295     -0.163636401       118.329147       2.98965096    
  0.420626789      0.270320386      -8.18181783E-02   108.742592       2.98965287    
  0.479746491      0.140866295      -8.18181783E-02   108.742592       2.98965287    
  0.479746491      0.140866295     -0.163636401       108.742592       2.98965287    
  0.420626789      0.270320386     -0.163636401       108.742592       2.98965287    
  0.327430397      0.377874792      -8.18181783E-02   90.3470535       2.98965549    
  0.420626789      0.270320386      -8.18181783E-02   90.3470535       2.98965549    
  0.420626789      0.270320386     -0.163636401       90.3470535       2.98965549    
  0.327430397      0.377874792     -0.163636401       90.3470535       2.98965549    
  0.207707494      0.454816014      -8.18181783E-02   64.6324615       2.98964071    
  0.327430397      0.377874792      -8.18181783E-02   64.6324615       2.98964071    
  0.327430397      0.377874792     -0.163636401       64.6324615       2.98964071    
  0.207707494      0.454816014     -0.163636401       64.6324615       2.98964071    
   7.11574182E-02  0.494910687      -8.18181783E-02   33.6800880       2.98965311    
  0.207707494      0.454816014      -8.18181783E-02   33.6800880       2.98965311    
  0.207707494      0.454816014     -0.163636401       33.6800880       2.98965311    
   7.11574182E-02  0.494910687     -0.163636401       33.6800880       2.98965311    
  -7.11574182E-02  0.494910687      -8.18181783E-02   2.55364459E-04   1.28764045    
   7.11574182E-02  0.494910687      -8.18181783E-02   2.55364459E-04   1.28764045    
   7.11574182E-02  0.494910687     -0.163636401       2.55364459E-04   1.28764045    
  -7.11574182E-02  0.494910687     -0.163636401       2.55364459E-04   1.28764045    
 -0.207707494      0.454816014      -8.18181783E-02   33.6804047     -0.151936263    
  -7.11574182E-02  0.494910687      -8.18181783E-02   33.6804047     -0.151936263    
  -7.11574182E-02  0.494910687     -0.163636401       33.6804047     -0.151936263    
 -0.207707494      0.454816014     -0.163636401       33.6804047     -0.151936263    
 -0.327430397      0.377874792      -8.18181783E-02   64.6324387     -0.151950032    
 -0.207707494      0.454816014      -8.18181783E-02   64.6324387     -0.151950032    
 -0.207707494      0.454816014     -0.163636401       64.6324387     -0.151950032    
 -0.327430397      0.377874792     -0.163636401       64.6324387     -0.151950032    
 -0.420626789      0.270320386      -8.18181783E-02   90.3470383     -0.151920989    
 -0.327430397      0.377874792      -8.18181783E-02   90.3470383     -0.151920989    
 -0.327430397      0.377874792     -0.163636401       90.3470383     -0.151920989    
 -0.420626789      0.270320386     -0.163636401       90.3470383     -0.151920989    
 -0.479746491      0.140866295      -8.18181783E-02   108.742172     -0.151941270    
 -0.420626789      0.270320386      -8.18181783E-02   108.742172     -0.151941270    
 -0.420626789      0.270320386     -0.163636401       108.742172     -0.151941270    
 -0.479746491      0.140866295     -0.163636401       108.742172     -0.151941270    
 -0.500000000       2.84000009E-16  -8.18181783E-02   118.329971     -0.151939988    
 -0.479746491      0.140866295      -8.18181783E-02   118.329971     -0.151939988    
 -0.479746491      0.140866295     -0.163636401       118.329971     -0.151939988    
 -0.500000000       2.84000009E-16 -0.163636401       118.329971     -0.151939988    
  0.479746491      0.140866295     -0.163636401       319.111542       1.73550463    
  0.500000000       0.00000000     -0.163636401       319.111542       1.73550463    
  0.500000000       0.00000000     -0.245454505       319.111542       1.73550463    
  0.479746491      0.140866295     -0.245454505       319.111542       1.73550463    
  0.420626789      0.270320386     -0.163636401       293.259125       1.73550248    
  0.479746491      0.140866295     -0.163636401       293.259125       1.73550248    
  0.479746491      0.140866295     -0.245454505       293.259125       1.73550248    
  0.420626789      0.270320386     -0.245454505       293.259125       1.73550248    
  0.327430397      0.377874792     -0.163636401       243.647385       1.73550630    
  0.420626789      0.270320386     -0.163636401       243.647385       1.73550630    
  0.420626789      0.270320386     -0.245454505       243.647385       1.73550630    
  0.327430397      0.377874792     -0.245454505       243.647385       1.73550630    
  0.207707494      0.454816014     -0.163636401       174.298065       1.73550296    
  0.327430397      0.377874792     -0.163636401       174.298065       1.73550296    
  0.327430397      0.377874792     -0.245454505       174.298065       1.73550296    
  0.207707494      0.454816014     -0.245454505       174.298065       1.73550296    
   7.11574182E-02  0.494910687     -0.163636401       90.8281174       1.73550272    
  0.207707494      0.454816014     -0.163636401       90.8281174       1.73550272    
  0.207707494      0.454816014     -0.245454505       90.8281174       1.73550272    
   7.11574182E-02  0.494910687     -0.245454505       90.8281174       1.73550272    
  -7.11574182E-02  0.494910687     -0.163636401       1.04873441E-04  -1.17057073    
   7.11574182E-02  0.494910687     -0.163636401       1.04873441E-04  -1.17057073    
   7.11574182E-02  0.494910687     -0.245454505       1.04873441E-04  -1.17057073    
  -7.11574182E-02  0.494910687     -0.245454505       1.04873441E-04  -1.17057073    
 -0.207707494      0.454816014     -0.163636401       90.8279343      -1.40609086    
  -7.11574182E-02  0.494910687     -0.163636401       90.8279343      -1.40609086    
  -7.11574182E-02  0.494910687     -0.245454505       90.8279343      -1.40609086    
 -0.207707494      0.454816014     -0.245454505       90.8279343      -1.40609086    
 -0.327430397      0.377874792     -0.163636401       174.297729      -1.40608716    
 -0.207707494      0.454816014     -0.163636401       174.297729      -1.40608716    
 -0.207707494      0.454816014     -0.245454505       174.297729      -1.40608716    
 -0.327430397      0.377874792     -0.245454505       174.297729      -1.40608716    
 -0.420626789      0.270320386     -0.163636401       243.647858      -1.40608561    
 -0.327430397      0.377874792     -0.163636401       243.647858      -1.40608561    
 -0.327430397      0.377874792     -0.245454505       243.647858      -1.40608561    
 -0.420626789      0.270320386     -0.245454505       243.647858      -1.40608561    
 -0.479746491      0.140866295     -0.163636401       293.258667      -1.40608883    
 -0.420626789      0.270320386     -0.163636401       293.258667      -1.40608883    
 -0.420626789      0.270320386     -0.245454505       293.258667      -1.40608883    
 -0.479746491      0.140866295     -0.245454505       293.258667      -1.40608883    
 -0.500000000       2.84000009E-16 -0.163636401       319.111237      -1.40608644    
 -0.479746491      0.140866295     -0.163636401       319.111237      -1.40608644    
 -0.479746491      0.140866295     -0.245454505       319.111237      -1.40608644    
 -0.500000000       2.84000009E-16 -0.245454505       319.111237      -1.40608644    
  0.479746491      0.140866295     -0.245454505       593.100220       1.60763991    
  0.500000000       0.00000000     -0.245454505       593.100220       1.60763991    
  0.500000000       0.00000000     -0.327272713       593.100220       1.60763991    
  0.479746491      0.140866295     -0.327272713       593.100220       1.60763991    
  0.420626789      0.270320386     -0.245454505       545.051697       1.60764003    
  0.479746491      0.140866295     -0.245454505       545.051697       1.60764003    
  0.479746491      0.140866295     -0.327272713       545.051697       1.60764003    
  0.420626789      0.270320386     -0.327272713       545.051697       1.60764003    
  0.327430397      0.377874792     -0.245454505       452.845612       1.60764027    
  0.420626789      0.270320386     -0.245454505       452.845612       1.60764027    
  0.420626789      0.270320386     -0.327272713       452.845612       1.60764027    
  0.327430397      0.377874792     -0.327272713       452.845612       1.60764027    
  0.207707494      0.454816014     -0.245454505       323.952240       1.60764098    
  0.327430397      0.377874792     -0.245454505       323.952240       1.60764098    
  0.327430397      0.377874792     -0.327272713       323.952240       1.60764098    
  0.207707494      0.454816014     -0.327272713       323.952240       1.60764098    
   7.11574182E-02  0.494910687     -0.245454505       168.814331       1.60764110    
  0.207707494      0.454816014     -0.245454505       168.814331       1.60764110    
  0.207707494      0.454816014     -0.327272713       168.814331       1.60764110    
   7.11574182E-02  0.494910687     -0.327272713       168.814331       1.60764110    
  -7.11574182E-02  0.494910687     -0.245454505       3.90864501E-04   1.78960013    
   7.11574182E-02  0.494910687     -0.245454505       3.90864501E-04   1.78960013    
   7.11574182E-02  0.494910687     -0.327272713       3.90864501E-04   1.78960013    
  -7.11574182E-02  0.494910687     -0.327272713       3.90864501E-04   1.78960013    
 -0.207707494      0.454816014     -0.245454505       168.813675      -1.53395176    
  -7.11574182E-02  0.494910687     -0.245454505       168.813675      -1.53395176    
  -7.11574182E-02  0.494910687     -0.327272713       168.813675      -1.53395176    
 -0.207707494      0.454816014     -0.327272713       168.813675      -1.53395176    
 -0.327430397      0.377874792     -0.245454505       323.952209      -1.53395200    
 -0.207707494      0.454816014     -0.245454505       323.952209      -1.53395200    
 -0.207707494      0.454816014     -0.327272713       323.952209      -1.53395200    
 -0.327430397      0.377874792     -0.327272713       323.952209      -1.53395200    
 -0.420626789      0.270320386     -0.245454505       452.844727      -1.53395176    
 -0.327430397      0.377874792     -0.245454505       452.844727      -1.53395176    
 -0.327430397      0.377874792     -0.327272713       452.844727      -1.53395176    
 -0.420626789      0.270320386     -0.327272713       452.844727      -1.53395176    
 -0.479746491      0.140866295     -0.245454505       545.051392      -1.53395319    
 -0.420626789      0.270320386     -0.245454505       545.051392      -1.53395319    
 -0.420626789      0.270320386     -0.327272713       545.051392      -1.53395319    
 -0.479746491      0.140866295     -0.327272713       545.051392      -1.53395319    
 -0.500000000       2.84000009E-16 -0.245454505       593.100342      -1.53395236    
 -0.479746491      0.140866295     -0.245454505       593.100342      -1.53395236    
 -0.479746491      0.140866295     -0.327272713       593.100342      -1.53395236    
 -0.500000000       2.84000009E-16 -0.327272713       593.100342      -1.53395236    
  0.479746491      0.140866295     -0.327272713       845.290466       1.57960725    
  0.500000000       0.00000000     -0.327272713       845.290466       1.57960725    
  0.500000000       0.00000000     -0.409090906       845.290466       1.57960725    
  0.479746491      0.140866295     -0.409090906       845.290466       1.57960725    
  0.420626789      0.270320386     -0.327272713       776.810364       1.57960713    
  0.479746491      0.140866295     -0.327272713       776.810364       1.57960713    
  0.479746491      0.140866295     -0.409090906       776.810364       1.57960713    
  0.420626789      0.270320386     -0.409090906       776.810364       1.57960713    
  0.327430397      0.377874792     -0.327272713       645.398499       1.57960641    
  0.420626789      0.270320386     -0.327272713       645.398499       1.57960641    
  0.420626789      0.270320386     -0.409090906       645.398499       1.57960641    
  0.327430397      0.377874792     -0.409090906       645.398499       1.57960641    
  0.207707494      0.454816014     -0.327272713       461.697906       1.57960784    
  0.327430397      0.377874792     -0.327272713       461.697906       1.57960784    
  0.327430397      0.377874792     -0.409090906       461.697906       1.57960784    
  0.207707494      0.454816014     -0.409090906       461.697906       1.57960784    
   7.11574182E-02  0.494910687     -0.327272713       240.596039       1.57960820    
  0.207707494      0.454816014     -0.327272713       240.596039       1.57960820    
  0.207707494      0.454816014     -0.409090906       240.596039       1.57960820    
   7.11574182E-02  0.494910687     -0.409090906       240.596039       1.57960820    
  -7.11574182E-02  0.494910687     -0.327272713       2.61695270E-04  0.766682446    
   7.11574182E-02  0.494910687     -0.327272713       2.61695270E-04  0.766682446    
   7.11574182E-02  0.494910687     -0.409090906       2.61695270E-04  0.766682446    
  -7.11574182E-02  0.494910687     -0.409090906       2.61695270E-04  0.766682446    
 -0.207707494      0.454816014     -0.327272713       240.595413      -1.56198490    
  -7.11574182E-02  0.494910687     -0.327272713       240.595413      -1.56198490    
  -7.11574182E-02  0.494910687     -0.409090906       240.595413      -1.56198490    
 -0.207707494      0.454816014     -0.409090906       240.595413      -1.56198490    
 -0.327430397      0.377874792     -0.327272713       461.698212      -1.56198454    
 -0.207707494      0.454816014     -0.327272713       461.698212      -1.56198454    
 -0.207707494      0.454816014     -0.409090906       461.698212      -1.56198454    
 -0.327430397      0.377874792     -0.409090906       461.698212      -1.56198454    
 -0.420626789      0.270320386     -0.327272713       645.398132      -1.56198645    
 -0.327430397      0.377874792     -0.327272713       645.398132      -1.56198645    
 -0.327430397      0.377874792     -0.409090906       645.398132      -1.56198645    
 -0.420626789      0.270320386     -0.409090906       645.398132      -1.56198645    
 -0.479746491      0.140866295     -0.327272713       776.810303      -1.56198502    
 -0.420626789      0.270320386     -0.327272713       776.810303      -1.56198502    
 -0.420626789      0.270320386     -0.409090906       776.810303      -1.56198502    
 -0.479746491      0.140866295     -0.409090906       776.810303      -1.56198502    
 -0.500000000       2.84000009E-16 -0.327272713       845.290710      -1.56198573    
 -0.479746491      0.140866295     -0.327272713       845.290710      -1.56198573    
 -0.479746491      0.140866295     -0.409090906       845.290710      -1.56198573    
 -0.500000000       2.84000009E-16 -0.409090906       845.290710      -1.56198573    
  0.479746491      0.140866295     -0.409090906       1068.79333       1.57158732    
  0.500000000       0.00000000     -0.409090906       1068.79333       1.57158732    
  0.500000000       0.00000000     -0.490909100       1068.79333       1.57158732    
  0.479746491      0.140866295     -0.490909100       1068.79333       1.57158732    
  0.420626789      0.270320386     -0.409090906       982.206360       1.57158732    
  0.479746491      0.140866295     -0.409090906       982.206360       1.57158732    
  0.479746491      0.140866295     -0.490909100       982.206360       1.57158732    
  0.420626789      0.270320386     -0.490909100       982.206360       1.57158732    
  0.327430397      0.377874792     -0.409090906       816.045349       1.57158709    
  0.420626789      0.270320386     -0.409090906       816.045349       1.57158709    
  0.420626789      0.270320386     -0.490909100       816.045349       1.57158709    
  0.327430397      0.377874792     -0.490909100       816.045349       1.57158709    
  0.207707494      0.454816014     -0.409090906       583.775757       1.57158613    
  0.327430397      0.377874792     -0.409090906       583.775757       1.57158613    
  0.327430397      0.377874792     -0.490909100       583.775757       1.57158613    
  0.207707494      0.454816014     -0.490909100       583.775757       1.57158613    
   7.11574182E-02  0.494910687     -0.409090906       304.210449       1.57158756    
  0.207707494      0.454816014     -0.409090906       304.210449       1.57158756    
  0.207707494      0.454816014     -0.490909100       304.210449       1.57158756    
   7.11574182E-02  0.494910687     -0.490909100       304.210449       1.57158756    
  -7.11574182E-02  0.494910687     -0.409090906       3.68335488E-04   1.45212281    
   7.11574182E-02  0.494910687     -0.409090906       3.68335488E-04   1.45212281    
   7.11574182E-02  0.494910687     -0.490909100       3.68335488E-04   1.45212281    
  -7.11574182E-02  0.494910687     -0.490909100       3.68335488E-04   1.45212281    
 -0.207707494      0.454816014     -0.409090906       304.209991      -1.57000589    
  -7.11574182E-02  0.494910687     -0.409090906       304.209991      -1.57000589    
  -7.11574182E-02  0.494910687     -0.490909100       304.209991      -1.57000589    
 -0.207707494      0.454816014     -0.490909100       304.209991      -1.57000589    
 -0.327430397      0.377874792     -0.409090906       583.775635      -1.57000649    
 -0.207707494      0.454816014     -0.409090906       583.775635      -1.57000649    
 -0.207707494      0.454816014     -0.490909100       583.775635      -1.57000649    
 -0.327430397      0.377874792     -0.490909100       583.775635      -1.57000649    
 -0.420626789      0.270320386     -0.409090906       816.046204      -1.57000566    
 -0.327430397      0.377874792     -0.409090906       816.046204      -1.57000566    
 -0.327430397      0.377874792     -0.490909100       816.046204      -1.57000566    
 -0.420626789      0.270320386     -0.490909100       816.046204      -1.57000566    
 -0.479746491      0.140866295     -0.409090906       982.206848      -1.57000518    
 -0.420626789      0.270320386     -0.409090906       982.206848      -1.57000518    
 -0.420626789      0.270320386     -0.490909100       982.206848      -1.57000518    
 -0.479746491      0.140866295     -0.490909100       982.206848      -1.57000518    
 -0.500000000       2.84000009E-16 -0.409090906       1068.79309      -1.57000506    
 -0.479746491      0.140866295     -0.409090906       1068.79309      -1.57000506    
 -0.479746491      0.140866295     -0.490909100       1068.79309      -1.57000506    
 -0.500000000       2.84000009E-16 -0.490909100       1068.79309      -1.57000506    
  0.479746491      0.140866295     -0.490909100       1257.63342       1.56923521    
  0.500000000       0.00000000     -0.490909100       1257.63342       1.56923521    
  0.500000000       0.00000000     -0.572727323       1257.63342       1.56923521    
  0.479746491      0.140866295     -0.572727323       1257.63342       1.56923521    
  0.420626789      0.270320386     -0.490909100       1155.74719       1.56923521    
  0.479746491      0.140866295     -0.490909100       1155.74719       1.56923521    
  0.479746491      0.140866295     -0.572727323       1155.74719       1.56923521    
  0.420626789      0.270320386     -0.572727323       1155.74719       1.56923521    
  0.327430397      0.377874792     -0.490909100       960.230530       1.56923556    
  0.420626789      0.270320386     -0.490909100       960.230530       1.56923556    
  0.420626789      0.270320386     -0.572727323       960.230530       1.56923556    
  0.327430397      0.377874792     -0.572727323       960.230530       1.56923556    
  0.207707494      0.454816014     -0.490909100       686.919312       1.56923556    
  0.327430397      0.377874792     -0.490909100       686.919312       1.56923556    
  0.327430397      0.377874792     -0.572727323       686.919312       1.56923556    
  0.207707494      0.454816014     -0.572727323       686.919312       1.56923556    
   7.11574182E-02  0.494910687     -0.490909100       357.959351       1.56923437    
  0.207707494      0.454816014     -0.490909100       357.959351       1.56923437    
  0.207707494      0.454816014     -0.572727323       357.959351       1.56923437    
   7.11574182E-02  0.494910687     -0.572727323       357.959351       1.56923437    
  -7.11574182E-02  0.494910687     -0.490909100       2.31457088E-04   1.01635063    
   7.11574182E-02  0.494910687     -0.490909100       2.31457088E-04   1.01635063    
   7.11574182E-02  0.494910687     -0.572727323       2.31457088E-04   1.01635063    
  -7.11574182E-02  0.494910687     -0.572727323       2.31457088E-04   1.01635063    
 -0.207707494      0.454816014     -0.490909100       357.959473      -1.57235801    
  -7.11574182E-02  0.494910687     -0.490909100       357.959473      -1.57235801    
  -7.11574182E-02  0.494910687     -0.572727323       357.959473      -1.57235801    
 -0.207707494      0.454816014     -0.572727323       357.959473      -1.57235801    
 -0.327430397      0.377874792     -0.490909100       686.919861      -1.57235682    
 -0.207707494      0.454816014     -0.490909100       686.919861      -1.57235682    
 -0.207707494      0.454816014     -0.572727323       686.919861      -1.57235682    
 -0.327430397      0.377874792     -0.572727323       686.919861      -1.57235682    
 -0.420626789      0.270320386     -0.490909100       960.230530      -1.57235706    
 -0.327430397      0.377874792     -0.490909100       960.230530      -1.57235706    
 -0.327430397      0.377874792     -0.572727323       960.230530      -1.57235706    
 -0.420626789      0.270320386     -0.572727323       960.230530      -1.57235706    
 -0.479746491      0.140866295     -0.490909100       1155.74707      -1.57235742    
 -0.420626789      0.270320386     -0.490909100       1155.74707      -1.57235742    
 -0.420626789      0.270320386     -0.572727323       1155.74707      -1.57235742    
 -0.479746491      0.140866295     -0.572727323       1155.74707      -1.57235742    
 -0.500000000       2.84000009E-16 -0.490909100       1257.63416      -1.57235718    
 -0.479746491      0.140866295     -0.490909100       1257.63416      -1.57235718    
 -0.479746491      0.140866295     -0.572727323       1257.63416      -1.57235718    
 -0.500000000       2.84000009E-16 -0.572727323       1257.63416      -1.57235718    
  0.479746491      0.140866295     -0.572727323       1400.87549       1.56857169    
  0.500000000       0.00000000     -0.572727323       1400.87549       1.56857169    
  0.500000000       0.00000000     -0.654545426       1400.87549       1.56857169    
  0.479746491      0.140866295     -0.654545426       1400.87549       1.56857169    
  0.420626789      0.270320386     -0.572727323       1287.38525       1.56857145    
  0.479746491      0.140866295     -0.572727323       1287.38525       1.56857145    
  0.479746491      0.140866295     -0.654545426       1287.38525       1.56857145    
  0.420626789      0.270320386     -0.654545426       1287.38525       1.56857145    
  0.327430397      0.377874792     -0.572727323       1069.59778       1.56857157    
  0.420626789      0.270320386     -0.572727323       1069.59778       1.56857157    
  0.420626789      0.270320386     -0.654545426       1069.59778       1.56857157    
  0.327430397      0.377874792     -0.654545426       1069.59778       1.56857157    
  0.207707494      0.454816014     -0.572727323       765.158630       1.56857133    
  0.327430397      0.377874792     -0.572727323       765.158630       1.56857133    
  0.327430397      0.377874792     -0.654545426       765.158630       1.56857133    
  0.207707494      0.454816014     -0.654545426       765.158630       1.56857133    
   7.11574182E-02  0.494910687     -0.572727323       398.729858       1.56857216    
  0.207707494      0.454816014     -0.572727323       398.729858       1.56857216    
  0.207707494      0.454816014     -0.654545426       398.729858       1.56857216    
   7.11574182E-02  0.494910687     -0.654545426       398.729858       1.56857216    
  -7.11574182E-02  0.494910687     -0.572727323       1.52226305E-04 -0.758897066    
   7.11574182E-02  0.494910687     -0.572727323       1.52226305E-04 -0.758897066    
   7.11574182E-02  0.494910687     -0.654545426       1.52226305E-04 -0.758897066    
  -7.11574182E-02  0.494910687     -0.654545426       1.52226305E-04 -0.758897066    
 -0.207707494      0.454816014     -0.572727323       398.730133      -1.57302105    
  -7.11574182E-02  0.494910687     -0.572727323       398.730133      -1.57302105    
  -7.11574182E-02  0.494910687     -0.654545426       398.730133      -1.57302105    
 -0.207707494      0.454816014     -0.654545426       398.730133      -1.57302105    
 -0.327430397      0.377874792     -0.572727323       765.158508      -1.57302117    
 -0.207707494      0.454816014     -0.572727323       765.158508      -1.57302117    
 -0.207707494      0.454816014     -0.654545426       765.158508      -1.57302117    
 -0.327430397      0.377874792     -0.654545426       765.158508      -1.57302117    
 -0.420626789      0.270320386     -0.572727323       1069.59766      -1.57302094    
 -0.327430397      0.377874792     -0.572727323       1069.59766      -1.57302094    
 -0.327430397      0.377874792     -0.654545426       1069.59766      -1.57302094    
 -0.420626789      0.270320386     -0.654545426       1069.59766      -1.57302094    
 -0.479746491      0.140866295     -0.572727323       1287.38501      -1.57302141    
 -0.420626789      0.270320386     -0.572727323       1287.38501      -1.57302141    
 -0.420626789      0.270320386     -0.654545426       1287.38501      -1.57302141    