 VARIABLES="X" "Y" "Z" "abs(p) (Pa)" "angle(p) (rad)"
ZONE N=    528,E =     462, F=FEPOINT, ET=QUADRILATERAL
  0.479746491      0.140866295       0.00000000       6929.85938      -1.46581435    
  0.500000000       0.00000000       0.00000000       6929.85938      -1.46581435    
  0.500000000       0.00000000      -8.18181783E-02   6929.85938      -1.46581435    
  0.479746491      0.140866295      -8.18181783E-02   6929.85938      -1.46581435    
  0.420626789      0.270320386       0.00000000       6368.44336      -1.46581435    
  0.479746491      0.140866295       0.00000000       6368.44336      -1.46581435    
  0.479746491      0.140866295      -8.18181783E-02   6368.44336      -1.46581435    
  0.420626789      0.270320386      -8.18181783E-02   6368.44336      -1.46581435    
  0.327430397      0.377874792       0.00000000       5291.09180      -1.46581435    
  0.420626789      0.270320386       0.00000000       5291.09180      -1.46581435    
  0.420626789      0.270320386      -8.18181783E-02   5291.09180      -1.46581435    
  0.327430397      0.377874792      -8.18181783E-02   5291.09180      -1.46581435    
  0.207707494      0.454816014       0.00000000       3785.08960      -1.46581447    
  0.327430397      0.377874792       0.00000000       3785.08960      -1.46581447    
  0.327430397      0.377874792      -8.18181783E-02   3785.08960      -1.46581447    
  0.207707494      0.454816014      -8.18181783E-02   3785.08960      -1.46581447    
   7.11574182E-02  0.494910687       0.00000000       1972.44153      -1.46581459    
  0.207707494      0.454816014       0.00000000       1972.44153      -1.46581459    
  0.207707494      0.454816014      -8.18181783E-02   1972.44153      -1.46581459    
   7.11574182E-02  0.494910687      -8.18181783E-02   1972.44153      -1.46581459    
  -7.11574182E-02  0.494910687       0.00000000       9.61319078E-04   2.58246660    
   7.11574182E-02  0.494910687       0.00000000       9.61319078E-04   2.58246660    
   7.11574182E-02  0.494910687      -8.18181783E-02   9.61319078E-04   2.58246660    
  -7.11574182E-02  0.494910687      -8.18181783E-02   9.61319078E-04   2.58246660    
 -0.207707494      0.454816014       0.00000000       1972.44336       1.67577863    
  -7.11574182E-02  0.494910687       0.00000000       1972.44336       1.67577863    
  -7.11574182E-02  0.494910687      -8.18181783E-02   1972.44336       1.67577863    
 -0.207707494      0.454816014      -8.18181783E-02   1972.44336       1.67577863    
 -0.327430397      0.377874792       0.00000000       3785.09058       1.67577851    
 -0.207707494      0.454816014       0.00000000       3785.09058       1.67577851    
 -0.207707494      0.454816014      -8.18181783E-02   3785.09058       1.67577851    
 -0.327430397      0.377874792      -8.18181783E-02   3785.09058       1.67577851    
 -0.420626789      0.270320386       0.00000000       5291.09375       1.67577851    
 -0.327430397      0.377874792       0.00000000       5291.09375       1.67577851    
 -0.327430397      0.377874792      -8.18181783E-02   5291.09375       1.67577851    
 -0.420626789      0.270320386      -8.18181783E-02   5291.09375       1.67577851    
 -0.479746491      0.140866295       0.00000000       6368.44531       1.67577851    
 -0.420626789      0.270320386       0.00000000       6368.44531       1.67577851    
 -0.420626789      0.270320386      -8.18181783E-02   6368.44531       1.67577851    
 -0.479746491      0.140866295      -8.18181783E-02   6368.44531       1.67577851    
 -0.500000000       2.84000009E-16   0.00000000       6929.85938       1.67577851    
 -0.479746491      0.140866295       0.00000000       6929.85938       1.67577851    
 -0.479746491      0.140866295      -8.18181783E-02   6929.85938       1.67577851    
 -0.500000000       2.84000009E-16  -8.18181783E-02   6929.85938       1.67577851    
  0.479746491      0.140866295      -8.18181783E-02   6794.89795      -1.46598470    
  0.500000000       0.00000000      -8.18181783E-02   6794.89795      -1.46598470    
  0.500000000       0.00000000     -0.163636401       6794.89795      -1.46598470    
  0.479746491      0.140866295     -0.163636401       6794.89795      -1.46598470    
  0.420626789      0.270320386      -8.18181783E-02   6244.41357      -1.46598470    
  0.479746491      0.140866295      -8.18181783E-02   6244.41357      -1.46598470    
  0.479746491      0.140866295     -0.163636401       6244.41357      -1.46598470    
  0.420626789      0.270320386     -0.163636401       6244.41357      -1.46598470    
  0.327430397      0.377874792      -8.18181783E-02   5188.04932      -1.46598482    
  0.420626789      0.270320386      -8.18181783E-02   5188.04932      -1.46598482    
  0.420626789      0.270320386     -0.163636401       5188.04932      -1.46598482    
  0.327430397      0.377874792     -0.163636401       5188.04932      -1.46598482    
  0.207707494      0.454816014      -8.18181783E-02   3711.37573      -1.46598470    
  0.327430397      0.377874792      -8.18181783E-02   3711.37573      -1.46598470    
  0.327430397      0.377874792     -0.163636401       3711.37573      -1.46598470    
  0.207707494      0.454816014     -0.163636401       3711.37573      -1.46598470    
   7.11574182E-02  0.494910687      -8.18181783E-02   1934.02893      -1.46598494    
  0.207707494      0.454816014      -8.18181783E-02   1934.02893      -1.46598494    
  0.207707494      0.454816014     -0.163636401       1934.02893      -1.46598494    
   7.11574182E-02  0.494910687     -0.163636401       1934.02893      -1.46598494    
  -7.11574182E-02  0.494910687      -8.18181783E-02   8.01260700E-04   2.58213496    
   7.11574182E-02  0.494910687      -8.18181783E-02   8.01260700E-04   2.58213496    
   7.11574182E-02  0.494910687     -0.163636401       8.01260700E-04   2.58213496    
  -7.11574182E-02  0.494910687     -0.163636401       8.01260700E-04   2.58213496    
 -0.207707494      0.454816014      -8.18181783E-02   1934.03003       1.67560840    
  -7.11574182E-02  0.494910687      -8.18181783E-02   1934.03003       1.67560840    
  -7.11574182E-02  0.494910687     -0.163636401       1934.03003       1.67560840    
 -0.207707494      0.454816014     -0.163636401       1934.03003       1.67560840    
 -0.327430397      0.377874792      -8.18181783E-02   3711.37720       1.67560828    
 -0.207707494      0.454816014      -8.18181783E-02   3711.37720       1.67560828    
 -0.207707494      0.454816014     -0.163636401       3711.37720       1.67560828    
 -0.327430397      0.377874792     -0.163636401       3711.37720       1.67560828    
 -0.420626789      0.270320386      -8.18181783E-02   5188.05078       1.67560816    
 -0.327430397      0.377874792      -8.18181783E-02   5188.05078       1.67560816    
 -0.327430397      0.377874792     -0.163636401       5188.05078       1.67560816    
 -0.420626789      0.270320386     -0.163636401       5188.05078       1.67560816    
 -0.479746491      0.140866295      -8.18181783E-02   6244.41650       1.67560816    
 -0.420626789      0.270320386      -8.18181783E-02   6244.41650       1.67560816    
 -0.420626789      0.270320386     -0.163636401       6244.41650       1.67560816    
 -0.479746491      0.140866295     -0.163636401       6244.41650       1.67560816    
 -0.500000000       2.84000009E-16  -8.18181783E-02   6794.89941       1.67560816    
 -0.479746491      0.140866295      -8.18181783E-02   6794.89941       1.67560816    
 -0.479746491      0.140866295     -0.163636401       6794.89941       1.67560816    
 -0.500000000       2.84000009E-16 -0.163636401       6794.89941       1.67560816    
  0.479746491      0.140866295     -0.163636401       6658.67480      -1.46607280    
  0.500000000       0.00000000     -0.163636401       6658.67480      -1.46607280    
  0.500000000       0.00000000     -0.245454505       6658.67480      -1.46607280    
  0.479746491      0.140866295     -0.245454505       6658.67480      -1.46607280    
  0.420626789      0.270320386     -0.163636401       6119.22900      -1.46607280    
  0.479746491      0.140866295     -0.163636401       6119.22900      -1.46607280    
  0.479746491      0.140866295     -0.245454505       6119.22900      -1.46607280    
  0.420626789      0.270320386     -0.245454505       6119.22900      -1.46607280    
  0.327430397      0.377874792     -0.163636401       5084.03955      -1.46607280    
  0.420626789      0.270320386     -0.163636401       5084.03955      -1.46607280    
  0.420626789      0.270320386     -0.245454505       5084.03955      -1.46607280    
  0.327430397      0.377874792     -0.245454505       5084.03955      -1.46607280    
  0.207707494      0.454816014     -0.163636401       3636.96924      -1.46607292    
  0.327430397      0.377874792     -0.163636401       3636.96924      -1.46607292    
  0.327430397      0.377874792     -0.245454505       3636.96924      -1.46607292    
  0.207707494      0.454816014     -0.245454505       3636.96924      -1.46607292    
   7.11574182E-02  0.494910687     -0.163636401       1895.25574      -1.46607292    
  0.207707494      0.454816014     -0.163636401       1895.25574      -1.46607292    
  0.207707494      0.454816014     -0.245454505       1895.25574      -1.46607292    
   7.11574182E-02  0.494910687     -0.245454505       1895.25574      -1.46607292    
  -7.11574182E-02  0.494910687     -0.163636401       7.48505699E-04   2.61088943    
   7.11574182E-02  0.494910687     -0.163636401       7.48505699E-04   2.61088943    
   7.11574182E-02  0.494910687     -0.245454505       7.48505699E-04   2.61088943    
  -7.11574182E-02  0.494910687     -0.245454505       7.48505699E-04   2.61088943    
 -0.207707494      0.454816014     -0.163636401       1895.25671       1.67552030    
  -7.11574182E-02  0.494910687     -0.163636401       1895.25671       1.67552030    
  -7.11574182E-02  0.494910687     -0.245454505       1895.25671       1.67552030    
 -0.207707494      0.454816014     -0.245454505       1895.25671       1.67552030    
 -0.327430397      0.377874792     -0.163636401       3636.97070       1.67552006    
 -0.207707494      0.454816014     -0.163636401       3636.97070       1.67552006    
 -0.207707494      0.454816014     -0.245454505       3636.97070       1.67552006    
 -0.327430397      0.377874792     -0.245454505       3636.97070       1.67552006    
 -0.420626789      0.270320386     -0.163636401       5084.04004       1.67552006    
 -0.327430397      0.377874792     -0.163636401       5084.04004       1.67552006    
 -0.327430397      0.377874792     -0.245454505       5084.04004       1.67552006    
 -0.420626789      0.270320386     -0.245454505       5084.04004       1.67552006    
 -0.479746491      0.140866295     -0.163636401       6119.22998       1.67552006    
 -0.420626789      0.270320386     -0.163636401       6119.22998       1.67552006    
 -0.420626789      0.270320386     -0.245454505       6119.22998       1.67552006    
 -0.479746491      0.140866295     -0.245454505       6119.22998       1.67552006    
 -0.500000000       2.84000009E-16 -0.163636401       6658.67578       1.67552006    
 -0.479746491      0.140866295     -0.163636401       6658.67578       1.67552006    
 -0.479746491      0.140866295     -0.245454505       6658.67578       1.67552006    
 -0.500000000       2.84000009E-16 -0.245454505       6658.67578       1.67552006    
  0.479746491      0.140866295     -0.245454505       6523.17529      -1.46606064    
  0.500000000       0.00000000     -0.245454505       6523.17529      -1.46606064    
  0.500000000       0.00000000     -0.327272713       6523.17529      -1.46606064    
  0.479746491      0.140866295     -0.327272713       6523.17529      -1.46606064    
  0.420626789      0.270320386     -0.245454505       5994.70898      -1.46606064    
  0.479746491      0.140866295     -0.245454505       5994.70898      -1.46606064    
  0.479746491      0.140866295     -0.327272713       5994.70898      -1.46606064    
  0.420626789      0.270320386     -0.327272713       5994.70898      -1.46606064    
  0.327430397      0.377874792     -0.245454505       4980.58398      -1.46606064    
  0.420626789      0.270320386     -0.245454505       4980.58398      -1.46606064    
  0.420626789      0.270320386     -0.327272713       4980.58398      -1.46606064    
  0.327430397      0.377874792     -0.327272713       4980.58398      -1.46606064    
  0.207707494      0.454816014     -0.245454505       3562.96118      -1.46606076    
  0.327430397      0.377874792     -0.245454505       3562.96118      -1.46606076    
  0.327430397      0.377874792     -0.327272713       3562.96118      -1.46606076    
  0.207707494      0.454816014     -0.327272713       3562.96118      -1.46606076    
   7.11574182E-02  0.494910687     -0.245454505       1856.68860      -1.46606088    
  0.207707494      0.454816014     -0.245454505       1856.68860      -1.46606088    
  0.207707494      0.454816014     -0.327272713       1856.68860      -1.46606088    
   7.11574182E-02  0.494910687     -0.327272713       1856.68860      -1.46606088    
  -7.11574182E-02  0.494910687     -0.245454505       6.51854090E-04   2.50324082    
   7.11574182E-02  0.494910687     -0.245454505       6.51854090E-04   2.50324082    
   7.11574182E-02  0.494910687     -0.327272713       6.51854090E-04   2.50324082    
  -7.11574182E-02  0.494910687     -0.327272713       6.51854090E-04   2.50324082    
 -0.207707494      0.454816014     -0.245454505       1856.69055       1.67553234    
  -7.11574182E-02  0.494910687     -0.245454505       1856.69055       1.67553234    
  -7.11574182E-02  0.494910687     -0.327272713       1856.69055       1.67553234    
 -0.207707494      0.454816014     -0.327272713       1856.69055       1.67553234    
 -0.327430397      0.377874792     -0.245454505       3562.96191       1.67553234    
 -0.207707494      0.454816014     -0.245454505       3562.96191       1.67553234    
 -0.207707494      0.454816014     -0.327272713       3562.96191       1.67553234    
 -0.327430397      0.377874792     -0.327272713       3562.96191       1.67553234    
 -0.420626789      0.270320386     -0.245454505       4980.58398       1.67553222    
 -0.327430397      0.377874792     -0.245454505       4980.58398       1.67553222    
 -0.327430397      0.377874792     -0.327272713       4980.58398       1.67553222    
 -0.420626789      0.270320386     -0.327272713       4980.58398       1.67553222    
 -0.479746491      0.140866295     -0.245454505       5994.70996       1.67553222    
 -0.420626789      0.270320386     -0.245454505       5994.70996       1.67553222    
 -0.420626789      0.270320386     -0.327272713       5994.70996       1.67553222    
 -0.479746491      0.140866295     -0.327272713       5994.70996       1.67553222    
 -0.500000000       2.84000009E-16 -0.245454505       6523.17773       1.67553222    
 -0.479746491      0.140866295     -0.245454505       6523.17773       1.67553222    
 -0.479746491      0.140866295     -0.327272713       6523.17773       1.67553222    
 -0.500000000       2.84000009E-16 -0.327272713       6523.17773       1.67553222    
  0.479746491      0.140866295     -0.327272713       6385.04443      -1.46590328    
  0.500000000       0.00000000     -0.327272713       6385.04443      -1.46590328    
  0.500000000       0.00000000     -0.409090906       6385.04443      -1.46590328    
  0.479746491      0.140866295     -0.409090906       6385.04443      -1.46590328    
  0.420626789      0.270320386     -0.327272713       5867.76221      -1.46590328    
  0.479746491      0.140866295     -0.327272713       5867.76221      -1.46590328    
  0.479746491      0.140866295     -0.409090906       5867.76221      -1.46590328    
  0.420626789      0.270320386     -0.409090906       5867.76221      -1.46590328    
  0.327430397      0.377874792     -0.327272713       4875.11182      -1.46590316    
  0.420626789      0.270320386     -0.327272713       4875.11182      -1.46590316    
  0.420626789      0.270320386     -0.409090906       4875.11182      -1.46590316    
  0.327430397      0.377874792     -0.409090906       4875.11182      -1.46590316    
  0.207707494      0.454816014     -0.327272713       3487.51099      -1.46590340    
  0.327430397      0.377874792     -0.327272713       3487.51099      -1.46590340    
  0.327430397      0.377874792     -0.409090906       3487.51099      -1.46590340    
  0.207707494      0.454816014     -0.409090906       3487.51099      -1.46590340    
   7.11574182E-02  0.494910687     -0.327272713       1817.37048      -1.46590340    
  0.207707494      0.454816014     -0.327272713       1817.37048      -1.46590340    
  0.207707494      0.454816014     -0.409090906       1817.37048      -1.46590340    
   7.11574182E-02  0.494910687     -0.409090906       1817.37048      -1.46590340    
  -7.11574182E-02  0.494910687     -0.327272713       9.91393463E-04   2.60508490    
   7.11574182E-02  0.494910687     -0.327272713       9.91393463E-04   2.60508490    
   7.11574182E-02  0.494910687     -0.409090906       9.91393463E-04   2.60508490    
  -7.11574182E-02  0.494910687     -0.409090906       9.91393463E-04   2.60508490    
 -0.207707494      0.454816014     -0.327272713       1817.37244       1.67568994    
  -7.11574182E-02  0.494910687     -0.327272713       1817.37244       1.67568994    
  -7.11574182E-02  0.494910687     -0.409090906       1817.37244       1.67568994    
 -0.207707494      0.454816014     -0.409090906       1817.37244       1.67568994    
 -0.327430397      0.377874792     -0.327272713       3487.51123       1.67568970    
 -0.207707494      0.454816014     -0.327272713       3487.51123       1.67568970    
 -0.207707494      0.454816014     -0.409090906       3487.51123       1.67568970    
 -0.327430397      0.377874792     -0.409090906       3487.51123       1.67568970    
 -0.420626789      0.270320386     -0.327272713       4875.11328       1.67568970    
 -0.327430397      0.377874792     -0.327272713       4875.11328       1.67568970    
 -0.327430397      0.377874792     -0.409090906       4875.11328       1.67568970    
 -0.420626789      0.270320386     -0.409090906       4875.11328       1.67568970    
 -0.479746491      0.140866295     -0.327272713       5867.76318       1.67568958    
 -0.420626789      0.270320386     -0.327272713       5867.76318       1.67568958    
 -0.420626789      0.270320386     -0.409090906       5867.76318       1.67568958    
 -0.479746491      0.140866295     -0.409090906       5867.76318       1.67568958    
 -0.500000000       2.84000009E-16 -0.327272713       6385.04443       1.67568958    
 -0.479746491      0.140866295     -0.327272713       6385.04443       1.67568958    
 -0.479746491      0.140866295     -0.409090906       6385.04443       1.67568958    
 -0.500000000       2.84000009E-16 -0.409090906       6385.04443       1.67568958    
  0.479746491      0.140866295     -0.409090906       6239.66260      -1.46554828    
  0.500000000       0.00000000     -0.409090906       6239.66260      -1.46554828    
  0.500000000       0.00000000     -0.490909100       6239.66260      -1.46554828    
  0.479746491      0.140866295     -0.490909100       6239.66260      -1.46554828    
  0.420626789      0.270320386     -0.409090906       5734.16162      -1.46554828    
  0.479746491      0.140866295     -0.409090906       5734.16162      -1.46554828    
  0.479746491      0.140866295     -0.490909100       5734.16162      -1.46554828    
  0.420626789      0.270320386     -0.490909100       5734.16162      -1.46554828    
  0.327430397      0.377874792     -0.409090906       4764.11279      -1.46554840    
  0.420626789      0.270320386     -0.409090906       4764.11279      -1.46554840    
  0.420626789      0.270320386     -0.490909100       4764.11279      -1.46554840    
  0.327430397      0.377874792     -0.490909100       4764.11279      -1.46554840    
  0.207707494      0.454816014     -0.409090906       3408.10742      -1.46554852    
  0.327430397      0.377874792     -0.409090906       3408.10742      -1.46554852    
  0.327430397      0.377874792     -0.490909100       3408.10742      -1.46554852    
  0.207707494      0.454816014     -0.490909100       3408.10742      -1.46554852    
   7.11574182E-02  0.494910687     -0.409090906       1775.99243      -1.46554852    
  0.207707494      0.454816014     -0.409090906       1775.99243      -1.46554852    
  0.207707494      0.454816014     -0.490909100       1775.99243      -1.46554852    
   7.11574182E-02  0.494910687     -0.490909100       1775.99243      -1.46554852    
  -7.11574182E-02  0.494910687     -0.409090906       9.00587765E-04   2.67968774    
   7.11574182E-02  0.494910687     -0.409090906       9.00587765E-04   2.67968774    
   7.11574182E-02  0.494910687     -0.490909100       9.00587765E-04   2.67968774    
  -7.11574182E-02  0.494910687     -0.490909100       9.00587765E-04   2.67968774    
 -0.207707494      0.454816014     -0.409090906       1775.99365       1.67604470    
  -7.11574182E-02  0.494910687     -0.409090906       1775.99365       1.67604470    
  -7.11574182E-02  0.494910687     -0.490909100       1775.99365       1.67604470    
 -0.207707494      0.454816014     -0.490909100       1775.99365       1.67604470    
 -0.327430397      0.377874792     -0.409090906       3408.10693       1.67604458    
 -0.207707494      0.454816014     -0.409090906       3408.10693       1.67604458    
 -0.207707494      0.454816014     -0.490909100       3408.10693       1.67604458    
 -0.327430397      0.377874792     -0.490909100       3408.10693       1.67604458    
 -0.420626789      0.270320386     -0.409090906       4764.11230       1.67604458    
 -0.327430397      0.377874792     -0.409090906       4764.11230       1.67604458    
 -0.327430397      0.377874792     -0.490909100       4764.11230       1.67604458    
 -0.420626789      0.270320386     -0.490909100       4764.11230       1.67604458    
 -0.479746491      0.140866295     -0.409090906       5734.16211       1.67604458    
 -0.420626789      0.270320386     -0.409090906       5734.16211       1.67604458    
 -0.420626789      0.270320386     -0.490909100       5734.16211       1.67604458    
 -0.479746491      0.140866295     -0.490909100       5734.16211       1.67604458    
 -0.500000000       2.84000009E-16 -0.409090906       6239.66260       1.67604446    
 -0.479746491      0.140866295     -0.409090906       6239.66260       1.67604446    
 -0.479746491      0.140866295     -0.490909100       6239.66260       1.67604446    
 -0.500000000       2.84000009E-16 -0.490909100       6239.66260       1.67604446    
  0.479746491      0.140866295     -0.490909100       6080.25586      -1.46492445    
  0.500000000       0.00000000     -0.490909100       6080.25586      -1.46492445    
  0.500000000       0.00000000     -0.572727323       6080.25586      -1.46492445    
  0.479746491      0.140866295     -0.572727323       6080.25586      -1.46492445    
  0.420626789      0.270320386     -0.490909100       5587.66895      -1.46492445    
  0.479746491      0.140866295     -0.490909100       5587.66895      -1.46492445    
  0.479746491      0.140866295     -0.572727323       5587.66895      -1.46492445    
  0.420626789      0.270320386     -0.572727323       5587.66895      -1.46492445    
  0.327430397      0.377874792     -0.490909100       4642.40381      -1.46492445    
  0.420626789      0.270320386     -0.490909100       4642.40381      -1.46492445    
  0.420626789      0.270320386     -0.572727323       4642.40381      -1.46492445    
  0.327430397      0.377874792     -0.572727323       4642.40381      -1.46492445    
  0.207707494      0.454816014     -0.490909100       3321.03516      -1.46492445    
  0.327430397      0.377874792     -0.490909100       3321.03516      -1.46492445    
  0.327430397      0.377874792     -0.572727323       3321.03516      -1.46492445    
  0.207707494      0.454816014     -0.572727323       3321.03516      -1.46492445    
   7.11574182E-02  0.494910687     -0.490909100       1730.62073      -1.46492469    
  0.207707494      0.454816014     -0.490909100       1730.62073      -1.46492469    
  0.207707494      0.454816014     -0.572727323       1730.62073      -1.46492469    
   7.11574182E-02  0.494910687     -0.572727323       1730.62073      -1.46492469    
  -7.11574182E-02  0.494910687     -0.490909100       8.93972581E-04   2.62630415    
   7.11574182E-02  0.494910687     -0.490909100       8.93972581E-04   2.62630415    
   7.11574182E-02  0.494910687     -0.572727323       8.93972581E-04   2.62630415    
  -7.11574182E-02  0.494910687     -0.572727323       8.93972581E-04   2.62630415    
 -0.207707494      0.454816014     -0.490909100       1730.62109       1.67666864    
  -7.11574182E-02  0.494910687     -0.490909100       1730.62109       1.67666864    
  -7.11574182E-02  0.494910687     -0.572727323       1730.62109       1.67666864    
 -0.207707494      0.454816014     -0.572727323       1730.62109       1.67666864    
 -0.327430397      0.377874792     -0.490909100       3321.03638       1.67666852    
 -0.207707494      0.454816014     -0.490909100       3321.03638       1.67666852    
 -0.207707494      0.454816014     -0.572727323       3321.03638       1.67666852    
 -0.327430397      0.377874792     -0.572727323       3321.03638       1.67666852    
 -0.420626789      0.270320386     -0.490909100       4642.40283       1.67666852    
 -0.327430397      0.377874792     -0.490909100       4642.40283       1.67666852    
 -0.327430397      0.377874792     -0.572727323       4642.40283       1.67666852    
 -0.420626789      0.270320386     -0.572727323       4642.40283       1.67666852    
 -0.479746491      0.140866295     -0.490909100       5587.67090       1.67666841    
 -0.420626789      0.270320386     -0.490909100       5587.67090       1.67666841    
 -0.420626789      0.270320386     -0.572727323       5587.67090       1.67666841    
 -0.479746491      0.140866295     -0.572727323       5587.67090       1.67666841    
 -0.500000000       2.84000009E-16 -0.490909100       6080.25684       1.67666841    
 -0.479746491      0.140866295     -0.490909100       6080.25684       1.67666841    
 -0.479746491      0.140866295     -0.572727323       6080.25684       1.67666841    
 -0.500000000       2.84000009E-16 -0.572727323       6080.25684       1.67666841    
  0.479746491      0.140866295     -0.572727323       5896.28076      -1.46391916    
  0.500000000       0.00000000     -0.572727323       5896.28076      -1.46391916    
  0.500000000       0.00000000     -0.654545426       5896.28076      -1.46391916    
  0.479746491      0.140866295     -0.654545426       5896.28076      -1.46391916    
  0.420626789      0.270320386     -0.572727323       5418.60059      -1.46391928    
  0.479746491      0.140866295     -0.572727323       5418.60059      -1.46391928    
  0.479746491      0.140866295     -0.654545426       5418.60059      -1.46391928    
  0.420626789      0.270320386     -0.654545426       5418.60059      -1.46391928    
  0.327430397      0.377874792     -0.572727323       4501.93555      -1.46391916    
  0.420626789      0.270320386     -0.572727323       4501.93555      -1.46391916    
  0.420626789      0.270320386     -0.654545426       4501.93555      -1.46391916    
  0.327430397      0.377874792     -0.654545426       4501.93555      -1.46391916    
  0.207707494      0.454816014     -0.572727323       3220.54932      -1.46391928    
  0.327430397      0.377874792     -0.572727323       3220.54932      -1.46391928    
  0.327430397      0.377874792     -0.654545426       3220.54932      -1.46391928    
  0.207707494      0.454816014     -0.654545426       3220.54932      -1.46391928    
   7.11574182E-02  0.494910687     -0.572727323       1678.25537      -1.46391928    
  0.207707494      0.454816014     -0.572727323       1678.25537      -1.46391928    
  0.207707494      0.454816014     -0.654545426       1678.25537      -1.46391928    
   7.11574182E-02  0.494910687     -0.654545426       1678.25537      -1.46391928    
  -7.11574182E-02  0.494910687     -0.572727323       9.03764099E-04   2.25707412    
   7.11574182E-02  0.494910687     -0.572727323       9.03764099E-04   2.25707412    
   7.11574182E-02  0.494910687     -0.654545426       9.03764099E-04   2.25707412    
  -7.11574182E-02  0.494910687     -0.654545426       9.03764099E-04   2.25707412    
 -0.207707494      0.454816014     -0.572727323       1678.25623       1.67767382    
  -7.11574182E-02  0.494910687     -0.572727323       1678.25623       1.67767382    
  -7.11574182E-02  0.494910687     -0.654545426       1678.25623       1.67767382    
 -0.207707494      0.454816014     -0.654545426       1678.25623       1.67767382    
 -0.327430397      0.377874792     -0.572727323       3220.55029       1.67767382    
 -0.207707494      0.454816014     -0.572727323       3220.55029       1.67767382    
 -0.207707494      0.454816014     -0.654545426       3220.55029       1.67767382    
 -0.327430397      0.377874792     -0.654545426       3220.55029       1.67767382    
 -0.420626789      0.270320386     -0.572727323       4501.93750       1.67767370    
 -0.327430397      0.377874792     -0.572727323       4501.93750       1.67767370    
 -0.327430397      0.377874792     -0.654545426       4501.93750       1.67767370    
 -0.420626789      0.270320386     -0.654545426       4501.93750       1.67767370    
 -0.479746491      0.140866295     -0.572727323       5418.60352       1.67767358    
 -0.420626789      0.270320386     -0.572727323       5418.60352       1.67767358    
 -0.420626789      0.270320386     -0.654545426       5418.60352       1.67767358    