 VARIABLES="X" "Y" "Z" "abs(p) (Pa)" "angle(p) (rad)"
ZONE N=    528,E =     462, F=FEPOINT, ET=QUADRILATERAL
  0.479746491      0.140866295       0.00000000       334.942871      0.166338950    
  0.500000000       0.00000000       0.00000000       334.942871      0.166338950    
  0.500000000       0.00000000      -8.18181783E-02   334.942871      0.166338950    
  0.479746491      0.140866295      -8.18181783E-02   334.942871      0.166338950    
  0.420626789      0.270320386       0.00000000       977.693115      0.166338101    
  0.479746491      0.140866295       0.00000000       977.693115      0.166338101    
  0.479746491      0.140866295      -8.18181783E-02   977.693115      0.166338101    
  0.420626789      0.270320386      -8.18181783E-02   977.693115      0.166338101    
  0.327430397      0.377874792       0.00000000       1541.23657      0.166338801    
  0.420626789      0.270320386       0.00000000       1541.23657      0.166338801    
  0.420626789      0.270320386      -8.18181783E-02   1541.23657      0.166338801    
  0.327430397      0.377874792      -8.18181783E-02   1541.23657      0.166338801    
  0.207707494      0.454816014       0.00000000       1979.91772      0.166339219    
  0.327430397      0.377874792       0.00000000       1979.91772      0.166339219    
  0.327430397      0.377874792      -8.18181783E-02   1979.91772      0.166339219    
  0.207707494      0.454816014      -8.18181783E-02   1979.91772      0.166339219    
   7.11574182E-02  0.494910687       0.00000000       2258.19897      0.166339487    
  0.207707494      0.454816014       0.00000000       2258.19897      0.166339487    
  0.207707494      0.454816014      -8.18181783E-02   2258.19897      0.166339487    
   7.11574182E-02  0.494910687      -8.18181783E-02   2258.19897      0.166339487    
  -7.11574182E-02  0.494910687       0.00000000       2353.53296      0.166339129    
   7.11574182E-02  0.494910687       0.00000000       2353.53296      0.166339129    
   7.11574182E-02  0.494910687      -8.18181783E-02   2353.53296      0.166339129    
  -7.11574182E-02  0.494910687      -8.18181783E-02   2353.53296      0.166339129    
 -0.207707494      0.454816014       0.00000000       2258.19849      0.166339248    
  -7.11574182E-02  0.494910687       0.00000000       2258.19849      0.166339248    
  -7.11574182E-02  0.494910687      -8.18181783E-02   2258.19849      0.166339248    
 -0.207707494      0.454816014      -8.18181783E-02   2258.19849      0.166339248    
 -0.327430397      0.377874792       0.00000000       1979.91772      0.166339055    
 -0.207707494      0.454816014       0.00000000       1979.91772      0.166339055    
 -0.207707494      0.454816014      -8.18181783E-02   1979.91772      0.166339055    
 -0.327430397      0.377874792      -8.18181783E-02   1979.91772      0.166339055    
 -0.420626789      0.270320386       0.00000000       1541.23669      0.166338757    
 -0.327430397      0.377874792       0.00000000       1541.23669      0.166338757    
 -0.327430397      0.377874792      -8.18181783E-02   1541.23669      0.166338757    
 -0.420626789      0.270320386      -8.18181783E-02   1541.23669      0.166338757    
 -0.479746491      0.140866295       0.00000000       977.693054      0.166337967    
 -0.420626789      0.270320386       0.00000000       977.693054      0.166337967    
 -0.420626789      0.270320386      -8.18181783E-02   977.693054      0.166337967    
 -0.479746491      0.140866295      -8.18181783E-02   977.693054      0.166337967    
 -0.500000000       2.84000009E-16   0.00000000       334.943024      0.166338533    
 -0.479746491      0.140866295       0.00000000       334.943024      0.166338533    
 -0.479746491      0.140866295      -8.18181783E-02   334.943024      0.166338533    
 -0.500000000       2.84000009E-16  -8.18181783E-02   334.943024      0.166338533    
  0.479746491      0.140866295      -8.18181783E-02   212.263748      -5.91325201E-02
  0.500000000       0.00000000      -8.18181783E-02   212.263748      -5.91325201E-02
  0.500000000       0.00000000     -0.163636401       212.263748      -5.91325201E-02
  0.479746491      0.140866295     -0.163636401       212.263748      -5.91325201E-02
  0.420626789      0.270320386      -8.18181783E-02   619.594604      -5.91315180E-02
  0.479746491      0.140866295      -8.18181783E-02   619.594604      -5.91315180E-02
  0.479746491      0.140866295     -0.163636401       619.594604      -5.91315180E-02
  0.420626789      0.270320386     -0.163636401       619.594604      -5.91315180E-02
  0.327430397      0.377874792      -8.18181783E-02   976.729553      -5.91313019E-02
  0.420626789      0.270320386      -8.18181783E-02   976.729553      -5.91313019E-02
  0.420626789      0.270320386     -0.163636401       976.729553      -5.91313019E-02
  0.327430397      0.377874792     -0.163636401       976.729553      -5.91313019E-02
  0.207707494      0.454816014      -8.18181783E-02   1254.73657      -5.91310076E-02
  0.327430397      0.377874792      -8.18181783E-02   1254.73657      -5.91310076E-02
  0.327430397      0.377874792     -0.163636401       1254.73657      -5.91310076E-02
  0.207707494      0.454816014     -0.163636401       1254.73657      -5.91310076E-02
   7.11574182E-02  0.494910687      -8.18181783E-02   1431.09094      -5.91306463E-02
  0.207707494      0.454816014      -8.18181783E-02   1431.09094      -5.91306463E-02
  0.207707494      0.454816014     -0.163636401       1431.09094      -5.91306463E-02
   7.11574182E-02  0.494910687     -0.163636401       1431.09094      -5.91306463E-02
  -7.11574182E-02  0.494910687      -8.18181783E-02   1491.50769      -5.91309853E-02
   7.11574182E-02  0.494910687      -8.18181783E-02   1491.50769      -5.91309853E-02
   7.11574182E-02  0.494910687     -0.163636401       1491.50769      -5.91309853E-02
  -7.11574182E-02  0.494910687     -0.163636401       1491.50769      -5.91309853E-02
 -0.207707494      0.454816014      -8.18181783E-02   1431.09082      -5.91307022E-02
  -7.11574182E-02  0.494910687      -8.18181783E-02   1431.09082      -5.91307022E-02
  -7.11574182E-02  0.494910687     -0.163636401       1431.09082      -5.91307022E-02
 -0.207707494      0.454816014     -0.163636401       1431.09082      -5.91307022E-02
 -0.327430397      0.377874792      -8.18181783E-02   1254.73645      -5.91311529E-02
 -0.207707494      0.454816014      -8.18181783E-02   1254.73645      -5.91311529E-02
 -0.207707494      0.454816014     -0.163636401       1254.73645      -5.91311529E-02
 -0.327430397      0.377874792     -0.163636401       1254.73645      -5.91311529E-02
 -0.420626789      0.270320386      -8.18181783E-02   976.729675      -5.91314435E-02
 -0.327430397      0.377874792      -8.18181783E-02   976.729675      -5.91314435E-02
 -0.327430397      0.377874792     -0.163636401       976.729675      -5.91314435E-02
 -0.420626789      0.270320386     -0.163636401       976.729675      -5.91314435E-02
 -0.479746491      0.140866295      -8.18181783E-02   619.594543      -5.91315888E-02
 -0.420626789      0.270320386      -8.18181783E-02   619.594543      -5.91315888E-02
 -0.420626789      0.270320386     -0.163636401       619.594543      -5.91315888E-02
 -0.479746491      0.140866295     -0.163636401       619.594543      -5.91315888E-02
 -0.500000000       2.84000009E-16  -8.18181783E-02   212.263748      -5.91325201E-02
 -0.479746491      0.140866295      -8.18181783E-02   212.263748      -5.91325201E-02
 -0.479746491      0.140866295     -0.163636401       212.263748      -5.91325201E-02
 -0.500000000       2.84000009E-16 -0.163636401       212.263748      -5.91325201E-02
  0.479746491      0.140866295     -0.163636401       158.582413     -0.536566615    
  0.500000000       0.00000000     -0.163636401       158.582413     -0.536566615    
  0.500000000       0.00000000     -0.245454505       158.582413     -0.536566615    
  0.479746491      0.140866295     -0.245454505       158.582413     -0.536566615    
  0.420626789      0.270320386     -0.163636401       462.899628     -0.536566854    
  0.479746491      0.140866295     -0.163636401       462.899628     -0.536566854    
  0.479746491      0.140866295     -0.245454505       462.899628     -0.536566854    
  0.420626789      0.270320386     -0.245454505       462.899628     -0.536566854    
  0.327430397      0.377874792     -0.163636401       729.715515     -0.536566257    
  0.420626789      0.270320386     -0.163636401       729.715515     -0.536566257    
  0.420626789      0.270320386     -0.245454505       729.715515     -0.536566257    
  0.327430397      0.377874792     -0.245454505       729.715515     -0.536566257    
  0.207707494      0.454816014     -0.163636401       937.414001     -0.536565721    
  0.327430397      0.377874792     -0.163636401       937.414001     -0.536565721    
  0.327430397      0.377874792     -0.245454505       937.414001     -0.536565721    
  0.207707494      0.454816014     -0.245454505       937.414001     -0.536565721    
   7.11574182E-02  0.494910687     -0.163636401       1069.16809     -0.536565959    
  0.207707494      0.454816014     -0.163636401       1069.16809     -0.536565959    
  0.207707494      0.454816014     -0.245454505       1069.16809     -0.536565959    
   7.11574182E-02  0.494910687     -0.245454505       1069.16809     -0.536565959    
  -7.11574182E-02  0.494910687     -0.163636401       1114.30627     -0.536565483    
   7.11574182E-02  0.494910687     -0.163636401       1114.30627     -0.536565483    
   7.11574182E-02  0.494910687     -0.245454505       1114.30627     -0.536565483    
  -7.11574182E-02  0.494910687     -0.245454505       1114.30627     -0.536565483    
 -0.207707494      0.454816014     -0.163636401       1069.16809     -0.536566138    
  -7.11574182E-02  0.494910687     -0.163636401       1069.16809     -0.536566138    
  -7.11574182E-02  0.494910687     -0.245454505       1069.16809     -0.536566138    
 -0.207707494      0.454816014     -0.245454505       1069.16809     -0.536566138    
 -0.327430397      0.377874792     -0.163636401       937.413940     -0.536565900    
 -0.207707494      0.454816014     -0.163636401       937.413940     -0.536565900    
 -0.207707494      0.454816014     -0.245454505       937.413940     -0.536565900    
 -0.327430397      0.377874792     -0.245454505       937.413940     -0.536565900    
 -0.420626789      0.270320386     -0.163636401       729.715454     -0.536566257    
 -0.327430397      0.377874792     -0.163636401       729.715454     -0.536566257    
 -0.327430397      0.377874792     -0.245454505       729.715454     -0.536566257    
 -0.420626789      0.270320386     -0.245454505       729.715454     -0.536566257    
 -0.479746491      0.140866295     -0.163636401       462.899780     -0.536566973    
 -0.420626789      0.270320386     -0.163636401       462.899780     -0.536566973    
 -0.420626789      0.270320386     -0.245454505       462.899780     -0.536566973    
 -0.479746491      0.140866295     -0.245454505       462.899780     -0.536566973    
 -0.500000000       2.84000009E-16 -0.163636401       158.582428     -0.536566079    
 -0.479746491      0.140866295     -0.163636401       158.582428     -0.536566079    
 -0.479746491      0.140866295     -0.245454505       158.582428     -0.536566079    
 -0.500000000       2.84000009E-16 -0.245454505       158.582428     -0.536566079    
  0.479746491      0.140866295     -0.245454505       165.650040      -1.01263225    
  0.500000000       0.00000000     -0.245454505       165.650040      -1.01263225    
  0.500000000       0.00000000     -0.327272713       165.650040      -1.01263225    
  0.479746491      0.140866295     -0.327272713       165.650040      -1.01263225    
  0.420626789      0.270320386     -0.245454505       483.530182      -1.01263177    
  0.479746491      0.140866295     -0.245454505       483.530182      -1.01263177    
  0.479746491      0.140866295     -0.327272713       483.530182      -1.01263177    
  0.420626789      0.270320386     -0.327272713       483.530182      -1.01263177    
  0.327430397      0.377874792     -0.245454505       762.237183      -1.01263154    
  0.420626789      0.270320386     -0.245454505       762.237183      -1.01263154    
  0.420626789      0.270320386     -0.327272713       762.237183      -1.01263154    
  0.327430397      0.377874792     -0.327272713       762.237183      -1.01263154    
  0.207707494      0.454816014     -0.245454505       979.192810      -1.01263201    
  0.327430397      0.377874792     -0.245454505       979.192810      -1.01263201    
  0.327430397      0.377874792     -0.327272713       979.192810      -1.01263201    
  0.207707494      0.454816014     -0.327272713       979.192810      -1.01263201    
   7.11574182E-02  0.494910687     -0.245454505       1116.81787      -1.01263094    
  0.207707494      0.454816014     -0.245454505       1116.81787      -1.01263094    
  0.207707494      0.454816014     -0.327272713       1116.81787      -1.01263094    
   7.11574182E-02  0.494910687     -0.327272713       1116.81787      -1.01263094    
  -7.11574182E-02  0.494910687     -0.245454505       1163.96765      -1.01263177    
   7.11574182E-02  0.494910687     -0.245454505       1163.96765      -1.01263177    
   7.11574182E-02  0.494910687     -0.327272713       1163.96765      -1.01263177    
  -7.11574182E-02  0.494910687     -0.327272713       1163.96765      -1.01263177    
 -0.207707494      0.454816014     -0.245454505       1116.81775      -1.01263094    
  -7.11574182E-02  0.494910687     -0.245454505       1116.81775      -1.01263094    
  -7.11574182E-02  0.494910687     -0.327272713       1116.81775      -1.01263094    
 -0.207707494      0.454816014     -0.327272713       1116.81775      -1.01263094    
 -0.327430397      0.377874792     -0.245454505       979.192627      -1.01263189    
 -0.207707494      0.454816014     -0.245454505       979.192627      -1.01263189    
 -0.207707494      0.454816014     -0.327272713       979.192627      -1.01263189    
 -0.327430397      0.377874792     -0.327272713       979.192627      -1.01263189    
 -0.420626789      0.270320386     -0.245454505       762.237244      -1.01263165    
 -0.327430397      0.377874792     -0.245454505       762.237244      -1.01263165    
 -0.327430397      0.377874792     -0.327272713       762.237244      -1.01263165    
 -0.420626789      0.270320386     -0.327272713       762.237244      -1.01263165    
 -0.479746491      0.140866295     -0.245454505       483.530151      -1.01263177    
 -0.420626789      0.270320386     -0.245454505       483.530151      -1.01263177    
 -0.420626789      0.270320386     -0.327272713       483.530151      -1.01263177    
 -0.479746491      0.140866295     -0.327272713       483.530151      -1.01263177    
 -0.500000000       2.84000009E-16 -0.245454505       165.650101      -1.01263225    
 -0.479746491      0.140866295     -0.245454505       165.650101      -1.01263225    
 -0.479746491      0.140866295     -0.327272713       165.650101      -1.01263225    
 -0.500000000       2.84000009E-16 -0.327272713       165.650101      -1.01263225    
  0.479746491      0.140866295     -0.327272713       196.951096      -1.28007329    
  0.500000000       0.00000000     -0.327272713       196.951096      -1.28007329    
  0.500000000       0.00000000     -0.409090906       196.951096      -1.28007329    
  0.479746491      0.140866295     -0.409090906       196.951096      -1.28007329    
  0.420626789      0.270320386     -0.327272713       574.896851      -1.28007317    
  0.479746491      0.140866295     -0.327272713       574.896851      -1.28007317    
  0.479746491      0.140866295     -0.409090906       574.896851      -1.28007317    
  0.420626789      0.270320386     -0.409090906       574.896851      -1.28007317    
  0.327430397      0.377874792     -0.327272713       906.268127      -1.28007340    
  0.420626789      0.270320386     -0.327272713       906.268127      -1.28007340    
  0.420626789      0.270320386     -0.409090906       906.268127      -1.28007340    
  0.327430397      0.377874792     -0.409090906       906.268127      -1.28007340    
  0.207707494      0.454816014     -0.327272713       1164.21985      -1.28007340    
  0.327430397      0.377874792     -0.327272713       1164.21985      -1.28007340    
  0.327430397      0.377874792     -0.409090906       1164.21985      -1.28007340    
  0.207707494      0.454816014     -0.409090906       1164.21985      -1.28007340    
   7.11574182E-02  0.494910687     -0.327272713       1327.85120      -1.28007329    
  0.207707494      0.454816014     -0.327272713       1327.85120      -1.28007329    
  0.207707494      0.454816014     -0.409090906       1327.85120      -1.28007329    
   7.11574182E-02  0.494910687     -0.409090906       1327.85120      -1.28007329    
  -7.11574182E-02  0.494910687     -0.327272713       1383.90869      -1.28007305    
   7.11574182E-02  0.494910687     -0.327272713       1383.90869      -1.28007305    
   7.11574182E-02  0.494910687     -0.409090906       1383.90869      -1.28007305    
  -7.11574182E-02  0.494910687     -0.409090906       1383.90869      -1.28007305    
 -0.207707494      0.454816014     -0.327272713       1327.85156      -1.28007340    
  -7.11574182E-02  0.494910687     -0.327272713       1327.85156      -1.28007340    
  -7.11574182E-02  0.494910687     -0.409090906       1327.85156      -1.28007340    
 -0.207707494      0.454816014     -0.409090906       1327.85156      -1.28007340    
 -0.327430397      0.377874792     -0.327272713       1164.21924      -1.28007329    
 -0.207707494      0.454816014     -0.327272713       1164.21924      -1.28007329    
 -0.207707494      0.454816014     -0.409090906       1164.21924      -1.28007329    
 -0.327430397      0.377874792     -0.409090906       1164.21924      -1.28007329    
 -0.420626789      0.270320386     -0.327272713       906.268311      -1.28007340    
 -0.327430397      0.377874792     -0.327272713       906.268311      -1.28007340    
 -0.327430397      0.377874792     -0.409090906       906.268311      -1.28007340    
 -0.420626789      0.270320386     -0.409090906       906.268311      -1.28007340    
 -0.479746491      0.140866295     -0.327272713       574.897217      -1.28007329    
 -0.420626789      0.270320386     -0.327272713       574.897217      -1.28007329    
 -0.420626789      0.270320386     -0.409090906       574.897217      -1.28007329    
 -0.479746491      0.140866295     -0.409090906       574.897217      -1.28007329    
 -0.500000000       2.84000009E-16 -0.327272713       196.951172      -1.28007329    
 -0.479746491      0.140866295     -0.327272713       196.951172      -1.28007329    
 -0.479746491      0.140866295     -0.409090906       196.951172      -1.28007329    
 -0.500000000       2.84000009E-16 -0.409090906       196.951172      -1.28007329    
  0.479746491      0.140866295     -0.409090906       228.610489      -1.41107798    
  0.500000000       0.00000000     -0.409090906       228.610489      -1.41107798    
  0.500000000       0.00000000     -0.490909100       228.610489      -1.41107798    
  0.479746491      0.140866295     -0.490909100       228.610489      -1.41107798    
  0.420626789      0.270320386     -0.409090906       667.310852      -1.41107798    
  0.479746491      0.140866295     -0.409090906       667.310852      -1.41107798    
  0.479746491      0.140866295     -0.490909100       667.310852      -1.41107798    
  0.420626789      0.270320386     -0.490909100       667.310852      -1.41107798    
  0.327430397      0.377874792     -0.409090906       1051.94885      -1.41107786    
  0.420626789      0.270320386     -0.409090906       1051.94885      -1.41107786    
  0.420626789      0.270320386     -0.490909100       1051.94885      -1.41107786    
  0.327430397      0.377874792     -0.490909100       1051.94885      -1.41107786    
  0.207707494      0.454816014     -0.409090906       1351.36572      -1.41107798    
  0.327430397      0.377874792     -0.409090906       1351.36572      -1.41107798    
  0.327430397      0.377874792     -0.490909100       1351.36572      -1.41107798    
  0.207707494      0.454816014     -0.490909100       1351.36572      -1.41107798    
   7.11574182E-02  0.494910687     -0.409090906       1541.30139      -1.41107786    
  0.207707494      0.454816014     -0.409090906       1541.30139      -1.41107786    
  0.207707494      0.454816014     -0.490909100       1541.30139      -1.41107786    
   7.11574182E-02  0.494910687     -0.490909100       1541.30139      -1.41107786    
  -7.11574182E-02  0.494910687     -0.409090906       1606.37061      -1.41107786    
   7.11574182E-02  0.494910687     -0.409090906       1606.37061      -1.41107786    
   7.11574182E-02  0.494910687     -0.490909100       1606.37061      -1.41107786    
  -7.11574182E-02  0.494910687     -0.490909100       1606.37061      -1.41107786    
 -0.207707494      0.454816014     -0.409090906       1541.30127      -1.41107786    
  -7.11574182E-02  0.494910687     -0.409090906       1541.30127      -1.41107786    
  -7.11574182E-02  0.494910687     -0.490909100       1541.30127      -1.41107786    
 -0.207707494      0.454816014     -0.490909100       1541.30127      -1.41107786    
 -0.327430397      0.377874792     -0.409090906       1351.36597      -1.41107798    
 -0.207707494      0.454816014     -0.409090906       1351.36597      -1.41107798    
 -0.207707494      0.454816014     -0.490909100       1351.36597      -1.41107798    
 -0.327430397      0.377874792     -0.490909100       1351.36597      -1.41107798    
 -0.420626789      0.270320386     -0.409090906       1051.94861      -1.41107786    
 -0.327430397      0.377874792     -0.409090906       1051.94861      -1.41107786    
 -0.327430397      0.377874792     -0.490909100       1051.94861      -1.41107786    
 -0.420626789      0.270320386     -0.490909100       1051.94861      -1.41107786    
 -0.479746491      0.140866295     -0.409090906       667.311096      -1.41107798    
 -0.420626789      0.270320386     -0.409090906       667.311096      -1.41107798    
 -0.420626789      0.270320386     -0.490909100       667.311096      -1.41107798    
 -0.479746491      0.140866295     -0.490909100       667.311096      -1.41107798    
 -0.500000000       2.84000009E-16 -0.409090906       228.610580      -1.41107798    
 -0.479746491      0.140866295     -0.409090906       228.610580      -1.41107798    
 -0.479746491      0.140866295     -0.490909100       228.610580      -1.41107798    
 -0.500000000       2.84000009E-16 -0.490909100       228.610580      -1.41107798    
  0.479746491      0.140866295     -0.490909100       253.317490      -1.47817075    
  0.500000000       0.00000000     -0.490909100       253.317490      -1.47817075    
  0.500000000       0.00000000     -0.572727323       253.317490      -1.47817075    
  0.479746491      0.140866295     -0.572727323       253.317490      -1.47817075    
  0.420626789      0.270320386     -0.490909100       739.430481      -1.47817087    
  0.479746491      0.140866295     -0.490909100       739.430481      -1.47817087    
  0.479746491      0.140866295     -0.572727323       739.430481      -1.47817087    
  0.420626789      0.270320386     -0.572727323       739.430481      -1.47817087    
  0.327430397      0.377874792     -0.490909100       1165.63940      -1.47817087    
  0.420626789      0.270320386     -0.490909100       1165.63940      -1.47817087    
  0.420626789      0.270320386     -0.572727323       1165.63940      -1.47817087    
  0.327430397      0.377874792     -0.572727323       1165.63940      -1.47817087    
  0.207707494      0.454816014     -0.490909100       1497.41467      -1.47817075    
  0.327430397      0.377874792     -0.490909100       1497.41467      -1.47817075    
  0.327430397      0.377874792     -0.572727323       1497.41467      -1.47817075    
  0.207707494      0.454816014     -0.572727323       1497.41467      -1.47817075    
   7.11574182E-02  0.494910687     -0.490909100       1707.87793      -1.47817075    
  0.207707494      0.454816014     -0.490909100       1707.87793      -1.47817075    
  0.207707494      0.454816014     -0.572727323       1707.87793      -1.47817075    
   7.11574182E-02  0.494910687     -0.572727323       1707.87793      -1.47817075    
  -7.11574182E-02  0.494910687     -0.490909100       1779.98108      -1.47817087    
   7.11574182E-02  0.494910687     -0.490909100       1779.98108      -1.47817087    
   7.11574182E-02  0.494910687     -0.572727323       1779.98108      -1.47817087    
  -7.11574182E-02  0.494910687     -0.572727323       1779.98108      -1.47817087    
 -0.207707494      0.454816014     -0.490909100       1707.87769      -1.47817075    
  -7.11574182E-02  0.494910687     -0.490909100       1707.87769      -1.47817075    
  -7.11574182E-02  0.494910687     -0.572727323       1707.87769      -1.47817075    
 -0.207707494      0.454816014     -0.572727323       1707.87769      -1.47817075    
 -0.327430397      0.377874792     -0.490909100       1497.41467      -1.47817075    
 -0.207707494      0.454816014     -0.490909100       1497.41467      -1.47817075    
 -0.207707494      0.454816014     -0.572727323       1497.41467      -1.47817075    
 -0.327430397      0.377874792     -0.572727323       1497.41467      -1.47817075    
 -0.420626789      0.270320386     -0.490909100       1165.63904      -1.47817087    
 -0.327430397      0.377874792     -0.490909100       1165.63904      -1.47817087    
 -0.327430397      0.377874792     -0.572727323       1165.63904      -1.47817087    
 -0.420626789      0.270320386     -0.572727323       1165.63904      -1.47817087    
 -0.479746491      0.140866295     -0.490909100       739.430542      -1.47817087    
 -0.420626789      0.270320386     -0.490909100       739.430542      -1.47817087    
 -0.420626789      0.270320386     -0.572727323       739.430542      -1.47817087    
 -0.479746491      0.140866295     -0.572727323       739.430542      -1.47817087    
 -0.500000000       2.84000009E-16 -0.490909100       253.317673      -1.47817087    
 -0.479746491      0.140866295     -0.490909100       253.317673      -1.47817087    
 -0.479746491      0.140866295     -0.572727323       253.317673      -1.47817087    
 -0.500000000       2.84000009E-16 -0.572727323       253.317673      -1.47817087    
  0.479746491      0.140866295     -0.572727323       269.210083      -1.51461506    
  0.500000000       0.00000000     -0.572727323       269.210083      -1.51461506    
  0.500000000       0.00000000     -0.654545426       269.210083      -1.51461506    
  0.479746491      0.140866295     -0.654545426       269.210083      -1.51461506    
  0.420626789      0.270320386     -0.572727323       785.820068      -1.51461506    
  0.479746491      0.140866295     -0.572727323       785.820068      -1.51461506    
  0.479746491      0.140866295     -0.654545426       785.820068      -1.51461506    
  0.420626789      0.270320386     -0.654545426       785.820068      -1.51461506    
  0.327430397      0.377874792     -0.572727323       1238.76709      -1.51461494    
  0.420626789      0.270320386     -0.572727323       1238.76709      -1.51461494    
  0.420626789      0.270320386     -0.654545426       1238.76709      -1.51461494    
  0.327430397      0.377874792     -0.654545426       1238.76709      -1.51461494    
  0.207707494      0.454816014     -0.572727323       1591.35669      -1.51461494    
  0.327430397      0.377874792     -0.572727323       1591.35669      -1.51461494    
  0.327430397      0.377874792     -0.654545426       1591.35669      -1.51461494    
  0.207707494      0.454816014     -0.654545426       1591.35669      -1.51461494    
   7.11574182E-02  0.494910687     -0.572727323       1815.02332      -1.51461494    
  0.207707494      0.454816014     -0.572727323       1815.02332      -1.51461494    
  0.207707494      0.454816014     -0.654545426       1815.02332      -1.51461494    
   7.11574182E-02  0.494910687     -0.654545426       1815.02332      -1.51461494    
  -7.11574182E-02  0.494910687     -0.572727323       1891.64832      -1.51461494    
   7.11574182E-02  0.494910687     -0.572727323       1891.64832      -1.51461494    
   7.11574182E-02  0.494910687     -0.654545426       1891.64832      -1.51461494    
  -7.11574182E-02  0.494910687     -0.654545426       1891.64832      -1.51461494    
 -0.207707494      0.454816014     -0.572727323       1815.02246      -1.51461494    
  -7.11574182E-02  0.494910687     -0.572727323       1815.02246      -1.51461494    
  -7.11574182E-02  0.494910687     -0.654545426       1815.02246      -1.51461494    
 -0.207707494      0.454816014     -0.654545426       1815.02246      -1.51461494    
 -0.327430397      0.377874792     -0.572727323       1591.35669      -1.51461494    
 -0.207707494      0.454816014     -0.572727323       1591.35669      -1.51461494    
 -0.207707494      0.454816014     -0.654545426       1591.35669      -1.51461494    
 -0.327430397      0.377874792     -0.654545426       1591.35669      -1.51461494    
 -0.420626789      0.270320386     -0.572727323       1238.76721      -1.51461494    
 -0.327430397      0.377874792     -0.572727323       1238.76721      -1.51461494    
 -0.327430397      0.377874792     -0.654545426       1238.76721      -1.51461494    
 -0.420626789      0.270320386     -0.654545426       1238.76721      -1.51461494    
 -0.479746491      0.140866295     -0.572727323       785.820129      -1.51461506    
 -0.420626789      0.270320386     -0.572727323       785.820129      -1.51461506    
 -0.420626789      0.270320386     -0.654545426       785.820129      -1.51461506    