 VARIABLES="X" "Y" "Z" "abs(p) (Pa)" "angle(p) (rad)"
ZONE N=    528,E =     462, F=FEPOINT, ET=QUADRILATERAL
  0.479746491      0.140866295       0.00000000       3264.92822       2.79192495    
  0.500000000       0.00000000       0.00000000       3264.92822       2.79192495    
  0.500000000       0.00000000      -8.18181783E-02   3264.92822       2.79192495    
  0.479746491      0.140866295      -8.18181783E-02   3264.92822       2.79192495    
  0.420626789      0.270320386       0.00000000       9530.29590       2.79192567    
  0.479746491      0.140866295       0.00000000       9530.29590       2.79192567    
  0.479746491      0.140866295      -8.18181783E-02   9530.29590       2.79192567    
  0.420626789      0.270320386      -8.18181783E-02   9530.29590       2.79192567    
  0.327430397      0.377874792       0.00000000       15023.5498       2.79192591    
  0.420626789      0.270320386       0.00000000       15023.5498       2.79192591    
  0.420626789      0.270320386      -8.18181783E-02   15023.5498       2.79192591    
  0.327430397      0.377874792      -8.18181783E-02   15023.5498       2.79192591    
  0.207707494      0.454816014       0.00000000       19299.7109       2.79192567    
  0.327430397      0.377874792       0.00000000       19299.7109       2.79192567    
  0.327430397      0.377874792      -8.18181783E-02   19299.7109       2.79192567    
  0.207707494      0.454816014      -8.18181783E-02   19299.7109       2.79192567    
   7.11574182E-02  0.494910687       0.00000000       22012.3027       2.79192591    
  0.207707494      0.454816014       0.00000000       22012.3027       2.79192591    
  0.207707494      0.454816014      -8.18181783E-02   22012.3027       2.79192591    
   7.11574182E-02  0.494910687      -8.18181783E-02   22012.3027       2.79192591    
  -7.11574182E-02  0.494910687       0.00000000       22941.6113       2.79192591    
   7.11574182E-02  0.494910687       0.00000000       22941.6113       2.79192591    
   7.11574182E-02  0.494910687      -8.18181783E-02   22941.6113       2.79192591    
  -7.11574182E-02  0.494910687      -8.18181783E-02   22941.6113       2.79192591    
 -0.207707494      0.454816014       0.00000000       22012.3027       2.79192591    
  -7.11574182E-02  0.494910687       0.00000000       22012.3027       2.79192591    
  -7.11574182E-02  0.494910687      -8.18181783E-02   22012.3027       2.79192591    
 -0.207707494      0.454816014      -8.18181783E-02   22012.3027       2.79192591    
 -0.327430397      0.377874792       0.00000000       19299.7109       2.79192567    
 -0.207707494      0.454816014       0.00000000       19299.7109       2.79192567    
 -0.207707494      0.454816014      -8.18181783E-02   19299.7109       2.79192567    
 -0.327430397      0.377874792      -8.18181783E-02   19299.7109       2.79192567    
 -0.420626789      0.270320386       0.00000000       15023.5527       2.79192567    
 -0.327430397      0.377874792       0.00000000       15023.5527       2.79192567    
 -0.327430397      0.377874792      -8.18181783E-02   15023.5527       2.79192567    
 -0.420626789      0.270320386      -8.18181783E-02   15023.5527       2.79192567    
 -0.479746491      0.140866295       0.00000000       9530.29688       2.79192567    
 -0.420626789      0.270320386       0.00000000       9530.29688       2.79192567    
 -0.420626789      0.270320386      -8.18181783E-02   9530.29688       2.79192567    
 -0.479746491      0.140866295      -8.18181783E-02   9530.29688       2.79192567    
 -0.500000000       2.84000009E-16   0.00000000       3264.92969       2.79192448    
 -0.479746491      0.140866295       0.00000000       3264.92969       2.79192448    
 -0.479746491      0.140866295      -8.18181783E-02   3264.92969       2.79192448    
 -0.500000000       2.84000009E-16  -8.18181783E-02   3264.92969       2.79192448    
  0.479746491      0.140866295      -8.18181783E-02   2705.09717       2.75203657    
  0.500000000       0.00000000      -8.18181783E-02   2705.09717       2.75203657    
  0.500000000       0.00000000     -0.163636401       2705.09717       2.75203657    
  0.479746491      0.140866295     -0.163636401       2705.09717       2.75203657    
  0.420626789      0.270320386      -8.18181783E-02   7896.13330       2.75203729    
  0.479746491      0.140866295      -8.18181783E-02   7896.13330       2.75203729    
  0.479746491      0.140866295     -0.163636401       7896.13330       2.75203729    
  0.420626789      0.270320386     -0.163636401       7896.13330       2.75203729    
  0.327430397      0.377874792      -8.18181783E-02   12447.4902       2.75203681    
  0.420626789      0.270320386      -8.18181783E-02   12447.4902       2.75203681    
  0.420626789      0.270320386     -0.163636401       12447.4902       2.75203681    
  0.327430397      0.377874792     -0.163636401       12447.4902       2.75203681    
  0.207707494      0.454816014      -8.18181783E-02   15990.4072       2.75203729    
  0.327430397      0.377874792      -8.18181783E-02   15990.4072       2.75203729    
  0.327430397      0.377874792     -0.163636401       15990.4072       2.75203729    
  0.207707494      0.454816014     -0.163636401       15990.4072       2.75203729    
   7.11574182E-02  0.494910687      -8.18181783E-02   18237.8770       2.75203753    
  0.207707494      0.454816014      -8.18181783E-02   18237.8770       2.75203753    
  0.207707494      0.454816014     -0.163636401       18237.8770       2.75203753    
   7.11574182E-02  0.494910687     -0.163636401       18237.8770       2.75203753    
  -7.11574182E-02  0.494910687      -8.18181783E-02   19007.8223       2.75203705    
   7.11574182E-02  0.494910687      -8.18181783E-02   19007.8223       2.75203705    
   7.11574182E-02  0.494910687     -0.163636401       19007.8223       2.75203705    
  -7.11574182E-02  0.494910687     -0.163636401       19007.8223       2.75203705    
 -0.207707494      0.454816014      -8.18181783E-02   18237.8770       2.75203753    
  -7.11574182E-02  0.494910687      -8.18181783E-02   18237.8770       2.75203753    
  -7.11574182E-02  0.494910687     -0.163636401       18237.8770       2.75203753    
 -0.207707494      0.454816014     -0.163636401       18237.8770       2.75203753    
 -0.327430397      0.377874792      -8.18181783E-02   15990.4062       2.75203753    
 -0.207707494      0.454816014      -8.18181783E-02   15990.4062       2.75203753    
 -0.207707494      0.454816014     -0.163636401       15990.4062       2.75203753    
 -0.327430397      0.377874792     -0.163636401       15990.4062       2.75203753    
 -0.420626789      0.270320386      -8.18181783E-02   12447.4873       2.75203705    
 -0.327430397      0.377874792      -8.18181783E-02   12447.4873       2.75203705    
 -0.327430397      0.377874792     -0.163636401       12447.4873       2.75203705    
 -0.420626789      0.270320386     -0.163636401       12447.4873       2.75203705    
 -0.479746491      0.140866295      -8.18181783E-02   7896.13428       2.75203705    
 -0.420626789      0.270320386      -8.18181783E-02   7896.13428       2.75203705    
 -0.420626789      0.270320386     -0.163636401       7896.13428       2.75203705    
 -0.479746491      0.140866295     -0.163636401       7896.13428       2.75203705    
 -0.500000000       2.84000009E-16  -8.18181783E-02   2705.09741       2.75203705    
 -0.479746491      0.140866295      -8.18181783E-02   2705.09741       2.75203705    
 -0.479746491      0.140866295     -0.163636401       2705.09741       2.75203705    
 -0.500000000       2.84000009E-16 -0.163636401       2705.09741       2.75203705    
  0.479746491      0.140866295     -0.163636401       2277.79736       2.68412662    
  0.500000000       0.00000000     -0.163636401       2277.79736       2.68412662    
  0.500000000       0.00000000     -0.245454505       2277.79736       2.68412662    
  0.479746491      0.140866295     -0.245454505       2277.79736       2.68412662    
  0.420626789      0.270320386     -0.163636401       6648.85693       2.68412733    
  0.479746491      0.140866295     -0.163636401       6648.85693       2.68412733    
  0.479746491      0.140866295     -0.245454505       6648.85693       2.68412733    
  0.420626789      0.270320386     -0.245454505       6648.85693       2.68412733    
  0.327430397      0.377874792     -0.163636401       10481.2744       2.68412781    
  0.420626789      0.270320386     -0.163636401       10481.2744       2.68412781    
  0.420626789      0.270320386     -0.245454505       10481.2744       2.68412781    
  0.327430397      0.377874792     -0.245454505       10481.2744       2.68412781    
  0.207707494      0.454816014     -0.163636401       13464.5537       2.68412805    
  0.327430397      0.377874792     -0.163636401       13464.5537       2.68412805    
  0.327430397      0.377874792     -0.245454505       13464.5537       2.68412805    
  0.207707494      0.454816014     -0.245454505       13464.5537       2.68412805    
   7.11574182E-02  0.494910687     -0.163636401       15357.0010       2.68412757    
  0.207707494      0.454816014     -0.163636401       15357.0010       2.68412757    
  0.207707494      0.454816014     -0.245454505       15357.0010       2.68412757    
   7.11574182E-02  0.494910687     -0.245454505       15357.0010       2.68412757    
  -7.11574182E-02  0.494910687     -0.163636401       16005.3350       2.68412781    
   7.11574182E-02  0.494910687     -0.163636401       16005.3350       2.68412781    
   7.11574182E-02  0.494910687     -0.245454505       16005.3350       2.68412781    
  -7.11574182E-02  0.494910687     -0.245454505       16005.3350       2.68412781    
 -0.207707494      0.454816014     -0.163636401       15357.0020       2.68412757    
  -7.11574182E-02  0.494910687     -0.163636401       15357.0020       2.68412757    
  -7.11574182E-02  0.494910687     -0.245454505       15357.0020       2.68412757    
 -0.207707494      0.454816014     -0.245454505       15357.0020       2.68412757    
 -0.327430397      0.377874792     -0.163636401       13464.5508       2.68412805    
 -0.207707494      0.454816014     -0.163636401       13464.5508       2.68412805    
 -0.207707494      0.454816014     -0.245454505       13464.5508       2.68412805    
 -0.327430397      0.377874792     -0.245454505       13464.5508       2.68412805    
 -0.420626789      0.270320386     -0.163636401       10481.2734       2.68412781    
 -0.327430397      0.377874792     -0.163636401       10481.2734       2.68412781    
 -0.327430397      0.377874792     -0.245454505       10481.2734       2.68412781    
 -0.420626789      0.270320386     -0.245454505       10481.2734       2.68412781    
 -0.479746491      0.140866295     -0.163636401       6648.85840       2.68412709    
 -0.420626789      0.270320386     -0.163636401       6648.85840       2.68412709    
 -0.420626789      0.270320386     -0.245454505       6648.85840       2.68412709    
 -0.479746491      0.140866295     -0.245454505       6648.85840       2.68412709    
 -0.500000000       2.84000009E-16 -0.163636401       2277.79858       2.68412733    
 -0.479746491      0.140866295     -0.163636401       2277.79858       2.68412733    
 -0.479746491      0.140866295     -0.245454505       2277.79858       2.68412733    
 -0.500000000       2.84000009E-16 -0.245454505       2277.79858       2.68412733    
  0.479746491      0.140866295     -0.245454505       1958.65222       2.59442592    
  0.500000000       0.00000000     -0.245454505       1958.65222       2.59442592    
  0.500000000       0.00000000     -0.327272713       1958.65222       2.59442592    
  0.479746491      0.140866295     -0.327272713       1958.65222       2.59442592    
  0.420626789      0.270320386     -0.245454505       5717.28320       2.59442568    
  0.479746491      0.140866295     -0.245454505       5717.28320       2.59442568    
  0.479746491      0.140866295     -0.327272713       5717.28320       2.59442568    
  0.420626789      0.270320386     -0.327272713       5717.28320       2.59442568    
  0.327430397      0.377874792     -0.245454505       9012.72656       2.59442544    
  0.420626789      0.270320386     -0.245454505       9012.72656       2.59442544    
  0.420626789      0.270320386     -0.327272713       9012.72656       2.59442544    
  0.327430397      0.377874792     -0.327272713       9012.72656       2.59442544    
  0.207707494      0.454816014     -0.245454505       11578.0195       2.59442568    
  0.327430397      0.377874792     -0.245454505       11578.0195       2.59442568    
  0.327430397      0.377874792     -0.327272713       11578.0195       2.59442568    
  0.207707494      0.454816014     -0.327272713       11578.0195       2.59442568    
   7.11574182E-02  0.494910687     -0.245454505       13205.3271       2.59442592    
  0.207707494      0.454816014     -0.245454505       13205.3271       2.59442592    
  0.207707494      0.454816014     -0.327272713       13205.3271       2.59442592    
   7.11574182E-02  0.494910687     -0.327272713       13205.3271       2.59442592    
  -7.11574182E-02  0.494910687     -0.245454505       13762.8125       2.59442520    
   7.11574182E-02  0.494910687     -0.245454505       13762.8125       2.59442520    
   7.11574182E-02  0.494910687     -0.327272713       13762.8125       2.59442520    
  -7.11574182E-02  0.494910687     -0.327272713       13762.8125       2.59442520    
 -0.207707494      0.454816014     -0.245454505       13205.3262       2.59442568    
  -7.11574182E-02  0.494910687     -0.245454505       13205.3262       2.59442568    
  -7.11574182E-02  0.494910687     -0.327272713       13205.3262       2.59442568    
 -0.207707494      0.454816014     -0.327272713       13205.3262       2.59442568    
 -0.327430397      0.377874792     -0.245454505       11578.0186       2.59442568    
 -0.207707494      0.454816014     -0.245454505       11578.0186       2.59442568    
 -0.207707494      0.454816014     -0.327272713       11578.0186       2.59442568    
 -0.327430397      0.377874792     -0.327272713       11578.0186       2.59442568    
 -0.420626789      0.270320386     -0.245454505       9012.72754       2.59442544    
 -0.327430397      0.377874792     -0.245454505       9012.72754       2.59442544    
 -0.327430397      0.377874792     -0.327272713       9012.72754       2.59442544    
 -0.420626789      0.270320386     -0.327272713       9012.72754       2.59442544    
 -0.479746491      0.140866295     -0.245454505       5717.28271       2.59442568    
 -0.420626789      0.270320386     -0.245454505       5717.28271       2.59442568    
 -0.420626789      0.270320386     -0.327272713       5717.28271       2.59442568    
 -0.479746491      0.140866295     -0.327272713       5717.28271       2.59442568    
 -0.500000000       2.84000009E-16 -0.245454505       1958.65271       2.59442449    
 -0.479746491      0.140866295     -0.245454505       1958.65271       2.59442449    
 -0.479746491      0.140866295     -0.327272713       1958.65271       2.59442449    
 -0.500000000       2.84000009E-16 -0.327272713       1958.65271       2.59442449    
  0.479746491      0.140866295     -0.327272713       1726.72119       2.49082446    
  0.500000000       0.00000000     -0.327272713       1726.72119       2.49082446    
  0.500000000       0.00000000     -0.409090906       1726.72119       2.49082446    
  0.479746491      0.140866295     -0.409090906       1726.72119       2.49082446    
  0.420626789      0.270320386     -0.327272713       5040.26611       2.49082541    
  0.479746491      0.140866295     -0.327272713       5040.26611       2.49082541    
  0.479746491      0.140866295     -0.409090906       5040.26611       2.49082541    
  0.420626789      0.270320386     -0.409090906       5040.26611       2.49082541    
  0.327430397      0.377874792     -0.327272713       7945.48486       2.49082518    
  0.420626789      0.270320386     -0.327272713       7945.48486       2.49082518    
  0.420626789      0.270320386     -0.409090906       7945.48486       2.49082518    
  0.327430397      0.377874792     -0.409090906       7945.48486       2.49082518    
  0.207707494      0.454816014     -0.327272713       10207.0029       2.49082518    
  0.327430397      0.377874792     -0.327272713       10207.0029       2.49082518    
  0.327430397      0.377874792     -0.409090906       10207.0029       2.49082518    
  0.207707494      0.454816014     -0.409090906       10207.0029       2.49082518    
   7.11574182E-02  0.494910687     -0.327272713       11641.6113       2.49082518    
  0.207707494      0.454816014     -0.327272713       11641.6113       2.49082518    
  0.207707494      0.454816014     -0.409090906       11641.6113       2.49082518    
   7.11574182E-02  0.494910687     -0.409090906       11641.6113       2.49082518    
  -7.11574182E-02  0.494910687     -0.327272713       12133.0840       2.49082470    
   7.11574182E-02  0.494910687     -0.327272713       12133.0840       2.49082470    
   7.11574182E-02  0.494910687     -0.409090906       12133.0840       2.49082470    
  -7.11574182E-02  0.494910687     -0.409090906       12133.0840       2.49082470    
 -0.207707494      0.454816014     -0.327272713       11641.6113       2.49082541    
  -7.11574182E-02  0.494910687     -0.327272713       11641.6113       2.49082541    
  -7.11574182E-02  0.494910687     -0.409090906       11641.6113       2.49082541    
 -0.207707494      0.454816014     -0.409090906       11641.6113       2.49082541    
 -0.327430397      0.377874792     -0.327272713       10207.0039       2.49082541    
 -0.207707494      0.454816014     -0.327272713       10207.0039       2.49082541    
 -0.207707494      0.454816014     -0.409090906       10207.0039       2.49082541    
 -0.327430397      0.377874792     -0.409090906       10207.0039       2.49082541    
 -0.420626789      0.270320386     -0.327272713       7945.48389       2.49082518    
 -0.327430397      0.377874792     -0.327272713       7945.48389       2.49082518    
 -0.327430397      0.377874792     -0.409090906       7945.48389       2.49082518    
 -0.420626789      0.270320386     -0.409090906       7945.48389       2.49082518    
 -0.479746491      0.140866295     -0.327272713       5040.26660       2.49082541    
 -0.420626789      0.270320386     -0.327272713       5040.26660       2.49082541    
 -0.420626789      0.270320386     -0.409090906       5040.26660       2.49082541    
 -0.479746491      0.140866295     -0.409090906       5040.26660       2.49082541    
 -0.500000000       2.84000009E-16 -0.327272713       1726.72168       2.49082494    
 -0.479746491      0.140866295     -0.327272713       1726.72168       2.49082494    
 -0.479746491      0.140866295     -0.409090906       1726.72168       2.49082494    
 -0.500000000       2.84000009E-16 -0.409090906       1726.72168       2.49082494    
  0.479746491      0.140866295     -0.409090906       1562.18030       2.38310218    
  0.500000000       0.00000000     -0.409090906       1562.18030       2.38310218    
  0.500000000       0.00000000     -0.490909100       1562.18030       2.38310218    
  0.479746491      0.140866295     -0.490909100       1562.18030       2.38310218    
  0.420626789      0.270320386     -0.409090906       4559.97217       2.38310146    
  0.479746491      0.140866295     -0.409090906       4559.97217       2.38310146    
  0.479746491      0.140866295     -0.490909100       4559.97217       2.38310146    
  0.420626789      0.270320386     -0.490909100       4559.97217       2.38310146    
  0.327430397      0.377874792     -0.409090906       7188.35010       2.38310218    
  0.420626789      0.270320386     -0.409090906       7188.35010       2.38310218    
  0.420626789      0.270320386     -0.490909100       7188.35010       2.38310218    
  0.327430397      0.377874792     -0.490909100       7188.35010       2.38310218    
  0.207707494      0.454816014     -0.409090906       9234.36914       2.38310146    
  0.327430397      0.377874792     -0.409090906       9234.36914       2.38310146    
  0.327430397      0.377874792     -0.490909100       9234.36914       2.38310146    
  0.207707494      0.454816014     -0.490909100       9234.36914       2.38310146    
   7.11574182E-02  0.494910687     -0.409090906       10532.2666       2.38310194    
  0.207707494      0.454816014     -0.409090906       10532.2666       2.38310194    
  0.207707494      0.454816014     -0.490909100       10532.2666       2.38310194    
   7.11574182E-02  0.494910687     -0.490909100       10532.2666       2.38310194    
  -7.11574182E-02  0.494910687     -0.409090906       10976.9150       2.38310146    
   7.11574182E-02  0.494910687     -0.409090906       10976.9150       2.38310146    
   7.11574182E-02  0.494910687     -0.490909100       10976.9150       2.38310146    
  -7.11574182E-02  0.494910687     -0.490909100       10976.9150       2.38310146    
 -0.207707494      0.454816014     -0.409090906       10532.2656       2.38310194    
  -7.11574182E-02  0.494910687     -0.409090906       10532.2656       2.38310194    
  -7.11574182E-02  0.494910687     -0.490909100       10532.2656       2.38310194    
 -0.207707494      0.454816014     -0.490909100       10532.2656       2.38310194    
 -0.327430397      0.377874792     -0.409090906       9234.36816       2.38310170    
 -0.207707494      0.454816014     -0.409090906       9234.36816       2.38310170    
 -0.207707494      0.454816014     -0.490909100       9234.36816       2.38310170    
 -0.327430397      0.377874792     -0.490909100       9234.36816       2.38310170    
 -0.420626789      0.270320386     -0.409090906       7188.35156       2.38310242    
 -0.327430397      0.377874792     -0.409090906       7188.35156       2.38310242    
 -0.327430397      0.377874792     -0.490909100       7188.35156       2.38310242    
 -0.420626789      0.270320386     -0.490909100       7188.35156       2.38310242    
 -0.479746491      0.140866295     -0.409090906       4559.97412       2.38310122    
 -0.420626789      0.270320386     -0.409090906       4559.97412       2.38310122    
 -0.420626789      0.270320386     -0.490909100       4559.97412       2.38310122    
 -0.479746491      0.140866295     -0.490909100       4559.97412       2.38310122    
 -0.500000000       2.84000009E-16 -0.409090906       1562.17896       2.38310242    
 -0.479746491      0.140866295     -0.409090906       1562.17896       2.38310242    
 -0.479746491      0.140866295     -0.490909100       1562.17896       2.38310242    
 -0.500000000       2.84000009E-16 -0.490909100       1562.17896       2.38310242    
  0.479746491      0.140866295     -0.490909100       1445.05347       2.28133225    
  0.500000000       0.00000000     -0.490909100       1445.05347       2.28133225    
  0.500000000       0.00000000     -0.572727323       1445.05347       2.28133225    
  0.479746491      0.140866295     -0.572727323       1445.05347       2.28133225    
  0.420626789      0.270320386     -0.490909100       4218.08691       2.28133130    
  0.479746491      0.140866295     -0.490909100       4218.08691       2.28133130    
  0.479746491      0.140866295     -0.572727323       4218.08691       2.28133130    
  0.420626789      0.270320386     -0.572727323       4218.08691       2.28133130    
  0.327430397      0.377874792     -0.490909100       6649.40039       2.28133178    
  0.420626789      0.270320386     -0.490909100       6649.40039       2.28133178    
  0.420626789      0.270320386     -0.572727323       6649.40039       2.28133178    
  0.327430397      0.377874792     -0.572727323       6649.40039       2.28133178    
  0.207707494      0.454816014     -0.490909100       8542.01953       2.28133130    
  0.327430397      0.377874792     -0.490909100       8542.01953       2.28133130    
  0.327430397      0.377874792     -0.572727323       8542.01953       2.28133130    
  0.207707494      0.454816014     -0.572727323       8542.01953       2.28133130    
   7.11574182E-02  0.494910687     -0.490909100       9742.60742       2.28133130    
  0.207707494      0.454816014     -0.490909100       9742.60742       2.28133130    
  0.207707494      0.454816014     -0.572727323       9742.60742       2.28133130    
   7.11574182E-02  0.494910687     -0.572727323       9742.60742       2.28133130    
  -7.11574182E-02  0.494910687     -0.490909100       10153.9111       2.28133154    
   7.11574182E-02  0.494910687     -0.490909100       10153.9111       2.28133154    
   7.11574182E-02  0.494910687     -0.572727323       10153.9111       2.28133154    
  -7.11574182E-02  0.494910687     -0.572727323       10153.9111       2.28133154    
 -0.207707494      0.454816014     -0.490909100       9742.60742       2.28133154    
  -7.11574182E-02  0.494910687     -0.490909100       9742.60742       2.28133154    
  -7.11574182E-02  0.494910687     -0.572727323       9742.60742       2.28133154    
 -0.207707494      0.454816014     -0.572727323       9742.60742       2.28133154    
 -0.327430397      0.377874792     -0.490909100       8542.01758       2.28133154    
 -0.207707494      0.454816014     -0.490909100       8542.01758       2.28133154    
 -0.207707494      0.454816014     -0.572727323       8542.01758       2.28133154    
 -0.327430397      0.377874792     -0.572727323       8542.01758       2.28133154    
 -0.420626789      0.270320386     -0.490909100       6649.39941       2.28133178    
 -0.327430397      0.377874792     -0.490909100       6649.39941       2.28133178    
 -0.327430397      0.377874792     -0.572727323       6649.39941       2.28133178    
 -0.420626789      0.270320386     -0.572727323       6649.39941       2.28133178    
 -0.479746491      0.140866295     -0.490909100       4218.08789       2.28133154    
 -0.420626789      0.270320386     -0.490909100       4218.08789       2.28133154    
 -0.420626789      0.270320386     -0.572727323       4218.08789       2.28133154    
 -0.479746491      0.140866295     -0.572727323       4218.08789       2.28133154    
 -0.500000000       2.84000009E-16 -0.490909100       1445.05420       2.28133249    
 -0.479746491      0.140866295     -0.490909100       1445.05420       2.28133249    
 -0.479746491      0.140866295     -0.572727323       1445.05420       2.28133249    
 -0.500000000       2.84000009E-16 -0.572727323       1445.05420       2.28133249    
  0.479746491      0.140866295     -0.572727323       1355.57556       2.19383740    
  0.500000000       0.00000000     -0.572727323       1355.57556       2.19383740    
  0.500000000       0.00000000     -0.654545426       1355.57556       2.19383740    
  0.479746491      0.140866295     -0.654545426       1355.57556       2.19383740    
  0.420626789      0.270320386     -0.572727323       3956.90430       2.19383788    
  0.479746491      0.140866295     -0.572727323       3956.90430       2.19383788    
  0.479746491      0.140866295     -0.654545426       3956.90430       2.19383788    
  0.420626789      0.270320386     -0.654545426       3956.90430       2.19383788    
  0.327430397      0.377874792     -0.572727323       6237.66748       2.19383764    
  0.420626789      0.270320386     -0.572727323       6237.66748       2.19383764    
  0.420626789      0.270320386     -0.654545426       6237.66748       2.19383764    
  0.327430397      0.377874792     -0.654545426       6237.66748       2.19383764    
  0.207707494      0.454816014     -0.572727323       8013.09814       2.19383764    
  0.327430397      0.377874792     -0.572727323       8013.09814       2.19383764    
  0.327430397      0.377874792     -0.654545426       8013.09814       2.19383764    
  0.207707494      0.454816014     -0.654545426       8013.09814       2.19383764    
   7.11574182E-02  0.494910687     -0.572727323       9139.34082       2.19383812    
  0.207707494      0.454816014     -0.572727323       9139.34082       2.19383812    
  0.207707494      0.454816014     -0.654545426       9139.34082       2.19383812    
   7.11574182E-02  0.494910687     -0.654545426       9139.34082       2.19383812    
  -7.11574182E-02  0.494910687     -0.572727323       9525.17578       2.19383836    
   7.11574182E-02  0.494910687     -0.572727323       9525.17578       2.19383836    
   7.11574182E-02  0.494910687     -0.654545426       9525.17578       2.19383836    
  -7.11574182E-02  0.494910687     -0.654545426       9525.17578       2.19383836    
 -0.207707494      0.454816014     -0.572727323       9139.33984       2.19383812    
  -7.11574182E-02  0.494910687     -0.572727323       9139.33984       2.19383812    
  -7.11574182E-02  0.494910687     -0.654545426       9139.33984       2.19383812    
 -0.207707494      0.454816014     -0.654545426       9139.33984       2.19383812    
 -0.327430397      0.377874792     -0.572727323       8013.09668       2.19383764    
 -0.207707494      0.454816014     -0.572727323       8013.09668       2.19383764    
 -0.207707494      0.454816014     -0.654545426       8013.09668       2.19383764    
 -0.327430397      0.377874792     -0.654545426       8013.09668       2.19383764    
 -0.420626789      0.270320386     -0.572727323       6237.66748       2.19383764    
 -0.327430397      0.377874792     -0.572727323       6237.66748       2.19383764    
 -0.327430397      0.377874792     -0.654545426       6237.66748       2.19383764    
 -0.420626789      0.270320386     -0.654545426       6237.66748       2.19383764    
 -0.479746491      0.140866295     -0.572727323       3956.90527       2.19383788    
 -0.420626789      0.270320386     -0.572727323       3956.90527       2.19383788    
 -0.420626789      0.270320386     -0.654545426       3956.90527       2.19383788    