 VARIABLES="X" "Y" "Z" "abs(p) (Pa)" "angle(p) (rad)"
ZONE N=    528,E =     462, F=FEPOINT, ET=QUADRILATERAL
  0.479746491      0.140866295       0.00000000       8823.44629      -3.00427842    
  0.500000000       0.00000000       0.00000000       8823.44629      -3.00427842    
  0.500000000       0.00000000      -8.18181783E-02   8823.44629      -3.00427842    
  0.479746491      0.140866295      -8.18181783E-02   8823.44629      -3.00427842    
  0.420626789      0.270320386       0.00000000       7589.73730      -3.01025295    
  0.479746491      0.140866295       0.00000000       7589.73730      -3.01025295    
  0.479746491      0.140866295      -8.18181783E-02   7589.73730      -3.01025295    
  0.420626789      0.270320386      -8.18181783E-02   7589.73730      -3.01025295    
  0.327430397      0.377874792       0.00000000       5400.93799      -2.99258590    
  0.420626789      0.270320386       0.00000000       5400.93799      -2.99258590    
  0.420626789      0.270320386      -8.18181783E-02   5400.93799      -2.99258590    
  0.327430397      0.377874792      -8.18181783E-02   5400.93799      -2.99258590    
  0.207707494      0.454816014       0.00000000       2842.87500      -2.79598951    
  0.327430397      0.377874792       0.00000000       2842.87500      -2.79598951    
  0.327430397      0.377874792      -8.18181783E-02   2842.87500      -2.79598951    
  0.207707494      0.454816014      -8.18181783E-02   2842.87500      -2.79598951    
   7.11574182E-02  0.494910687       0.00000000       1700.19788      -1.66398990    
  0.207707494      0.454816014       0.00000000       1700.19788      -1.66398990    
  0.207707494      0.454816014      -8.18181783E-02   1700.19788      -1.66398990    
   7.11574182E-02  0.494910687      -8.18181783E-02   1700.19788      -1.66398990    
  -7.11574182E-02  0.494910687       0.00000000       3351.31543      -1.06470942    
   7.11574182E-02  0.494910687       0.00000000       3351.31543      -1.06470942    
   7.11574182E-02  0.494910687      -8.18181783E-02   3351.31543      -1.06470942    
  -7.11574182E-02  0.494910687      -8.18181783E-02   3351.31543      -1.06470942    
 -0.207707494      0.454816014       0.00000000       4966.16553      -1.07296515    
  -7.11574182E-02  0.494910687       0.00000000       4966.16553      -1.07296515    
  -7.11574182E-02  0.494910687      -8.18181783E-02   4966.16553      -1.07296515    
 -0.207707494      0.454816014      -8.18181783E-02   4966.16553      -1.07296515    
 -0.327430397      0.377874792       0.00000000       6019.45996      -1.20113277    
 -0.207707494      0.454816014       0.00000000       6019.45996      -1.20113277    
 -0.207707494      0.454816014      -8.18181783E-02   6019.45996      -1.20113277    
 -0.327430397      0.377874792      -8.18181783E-02   6019.45996      -1.20113277    
 -0.420626789      0.270320386       0.00000000       6611.11084      -1.35287142    
 -0.327430397      0.377874792       0.00000000       6611.11084      -1.35287142    
 -0.327430397      0.377874792      -8.18181783E-02   6611.11084      -1.35287142    
 -0.420626789      0.270320386      -8.18181783E-02   6611.11084      -1.35287142    
 -0.479746491      0.140866295       0.00000000       6915.43262      -1.48175108    
 -0.420626789      0.270320386       0.00000000       6915.43262      -1.48175108    
 -0.420626789      0.270320386      -8.18181783E-02   6915.43262      -1.48175108    
 -0.479746491      0.140866295      -8.18181783E-02   6915.43262      -1.48175108    
 -0.500000000       2.84000009E-16   0.00000000       7046.81543      -1.55515349    
 -0.479746491      0.140866295       0.00000000       7046.81543      -1.55515349    
 -0.479746491      0.140866295      -8.18181783E-02   7046.81543      -1.55515349    
 -0.500000000       2.84000009E-16  -8.18181783E-02   7046.81543      -1.55515349    
  0.479746491      0.140866295      -8.18181783E-02   7447.92090      -3.00539589    
  0.500000000       0.00000000      -8.18181783E-02   7447.92090      -3.00539589    
  0.500000000       0.00000000     -0.163636401       7447.92090      -3.00539589    
  0.479746491      0.140866295     -0.163636401       7447.92090      -3.00539589    
  0.420626789      0.270320386      -8.18181783E-02   6405.71631      -3.01173759    
  0.479746491      0.140866295      -8.18181783E-02   6405.71631      -3.01173759    
  0.479746491      0.140866295     -0.163636401       6405.71631      -3.01173759    
  0.420626789      0.270320386     -0.163636401       6405.71631      -3.01173759    
  0.327430397      0.377874792      -8.18181783E-02   4556.31689      -2.99500728    
  0.420626789      0.270320386      -8.18181783E-02   4556.31689      -2.99500728    
  0.420626789      0.270320386     -0.163636401       4556.31689      -2.99500728    
  0.327430397      0.377874792     -0.163636401       4556.31689      -2.99500728    
  0.207707494      0.454816014      -8.18181783E-02   2392.95215      -2.80045915    
  0.327430397      0.377874792      -8.18181783E-02   2392.95215      -2.80045915    
  0.327430397      0.377874792     -0.163636401       2392.95215      -2.80045915    
  0.207707494      0.454816014     -0.163636401       2392.95215      -2.80045915    
   7.11574182E-02  0.494910687      -8.18181783E-02   1422.95361      -1.66205871    
  0.207707494      0.454816014      -8.18181783E-02   1422.95361      -1.66205871    
  0.207707494      0.454816014     -0.163636401       1422.95361      -1.66205871    
   7.11574182E-02  0.494910687     -0.163636401       1422.95361      -1.66205871    
  -7.11574182E-02  0.494910687      -8.18181783E-02   2821.56104      -1.06194639    
   7.11574182E-02  0.494910687      -8.18181783E-02   2821.56104      -1.06194639    
   7.11574182E-02  0.494910687     -0.163636401       2821.56104      -1.06194639    
  -7.11574182E-02  0.494910687     -0.163636401       2821.56104      -1.06194639    
 -0.207707494      0.454816014      -8.18181783E-02   4184.80127      -1.07189345    
  -7.11574182E-02  0.494910687      -8.18181783E-02   4184.80127      -1.07189345    
  -7.11574182E-02  0.494910687     -0.163636401       4184.80127      -1.07189345    
 -0.207707494      0.454816014     -0.163636401       4184.80127      -1.07189345    
 -0.327430397      0.377874792      -8.18181783E-02   5072.35156      -1.20125115    
 -0.207707494      0.454816014      -8.18181783E-02   5072.35156      -1.20125115    
 -0.207707494      0.454816014     -0.163636401       5072.35156      -1.20125115    
 -0.327430397      0.377874792     -0.163636401       5072.35156      -1.20125115    
 -0.420626789      0.270320386      -8.18181783E-02   5570.09082      -1.35393512    
 -0.327430397      0.377874792      -8.18181783E-02   5570.09082      -1.35393512    
 -0.327430397      0.377874792     -0.163636401       5570.09082      -1.35393512    
 -0.420626789      0.270320386     -0.163636401       5570.09082      -1.35393512    
 -0.479746491      0.140866295      -8.18181783E-02   5825.86279      -1.48352146    
 -0.420626789      0.270320386      -8.18181783E-02   5825.86279      -1.48352146    
 -0.420626789      0.270320386     -0.163636401       5825.86279      -1.48352146    
 -0.479746491      0.140866295     -0.163636401       5825.86279      -1.48352146    
 -0.500000000       2.84000009E-16  -8.18181783E-02   5936.29004      -1.55730760    
 -0.479746491      0.140866295      -8.18181783E-02   5936.29004      -1.55730760    
 -0.479746491      0.140866295     -0.163636401       5936.29004      -1.55730760    
 -0.500000000       2.84000009E-16 -0.163636401       5936.29004      -1.55730760    
  0.479746491      0.140866295     -0.163636401       6290.32373      -3.00471902    
  0.500000000       0.00000000     -0.163636401       6290.32373      -3.00471902    
  0.500000000       0.00000000     -0.245454505       6290.32373      -3.00471902    
  0.479746491      0.140866295     -0.245454505       6290.32373      -3.00471902    
  0.420626789      0.270320386     -0.163636401       5410.15723      -3.01108193    
  0.479746491      0.140866295     -0.163636401       5410.15723      -3.01108193    
  0.479746491      0.140866295     -0.245454505       5410.15723      -3.01108193    
  0.420626789      0.270320386     -0.245454505       5410.15723      -3.01108193    
  0.327430397      0.377874792     -0.163636401       3848.36035      -2.99440026    
  0.420626789      0.270320386     -0.163636401       3848.36035      -2.99440026    
  0.420626789      0.270320386     -0.245454505       3848.36035      -2.99440026    
  0.327430397      0.377874792     -0.245454505       3848.36035      -2.99440026    
  0.207707494      0.454816014     -0.163636401       2021.51501      -2.80002475    
  0.327430397      0.377874792     -0.163636401       2021.51501      -2.80002475    
  0.327430397      0.377874792     -0.245454505       2021.51501      -2.80002475    
  0.207707494      0.454816014     -0.245454505       2021.51501      -2.80002475    
   7.11574182E-02  0.494910687     -0.163636401       1201.56323      -1.66252208    
  0.207707494      0.454816014     -0.163636401       1201.56323      -1.66252208    
  0.207707494      0.454816014     -0.245454505       1201.56323      -1.66252208    
   7.11574182E-02  0.494910687     -0.245454505       1201.56323      -1.66252208    
  -7.11574182E-02  0.494910687     -0.163636401       2381.27441      -1.06204629    
   7.11574182E-02  0.494910687     -0.163636401       2381.27441      -1.06204629    
   7.11574182E-02  0.494910687     -0.245454505       2381.27441      -1.06204629    
  -7.11574182E-02  0.494910687     -0.245454505       2381.27441      -1.06204629    
 -0.207707494      0.454816014     -0.163636401       3531.31006      -1.07198834    
  -7.11574182E-02  0.494910687     -0.163636401       3531.31006      -1.07198834    
  -7.11574182E-02  0.494910687     -0.245454505       3531.31006      -1.07198834    
 -0.207707494      0.454816014     -0.245454505       3531.31006      -1.07198834    
 -0.327430397      0.377874792     -0.163636401       4279.53662      -1.20148182    
 -0.207707494      0.454816014     -0.163636401       4279.53662      -1.20148182    
 -0.207707494      0.454816014     -0.245454505       4279.53662      -1.20148182    
 -0.327430397      0.377874792     -0.245454505       4279.53662      -1.20148182    
 -0.420626789      0.270320386     -0.163636401       4698.68115      -1.35435867    
 -0.327430397      0.377874792     -0.163636401       4698.68115      -1.35435867    
 -0.327430397      0.377874792     -0.245454505       4698.68115      -1.35435867    
 -0.420626789      0.270320386     -0.245454505       4698.68115      -1.35435867    
 -0.479746491      0.140866295     -0.163636401       4913.81348      -1.48413384    
 -0.420626789      0.270320386     -0.163636401       4913.81348      -1.48413384    
 -0.420626789      0.270320386     -0.245454505       4913.81348      -1.48413384    
 -0.479746491      0.140866295     -0.245454505       4913.81348      -1.48413384    
 -0.500000000       2.84000009E-16 -0.163636401       5006.62793      -1.55803728    
 -0.479746491      0.140866295     -0.163636401       5006.62793      -1.55803728    
 -0.479746491      0.140866295     -0.245454505       5006.62793      -1.55803728    
 -0.500000000       2.84000009E-16 -0.245454505       5006.62793      -1.55803728    
  0.479746491      0.140866295     -0.245454505       5327.75391      -3.00274348    
  0.500000000       0.00000000     -0.245454505       5327.75391      -3.00274348    
  0.500000000       0.00000000     -0.327272713       5327.75391      -3.00274348    
  0.479746491      0.140866295     -0.327272713       5327.75391      -3.00274348    
  0.420626789      0.270320386     -0.245454505       4582.62402      -3.00898504    
  0.479746491      0.140866295     -0.245454505       4582.62402      -3.00898504    
  0.479746491      0.140866295     -0.327272713       4582.62402      -3.00898504    
  0.420626789      0.270320386     -0.327272713       4582.62402      -3.00898504    
  0.327430397      0.377874792     -0.245454505       3260.62524      -2.99197006    
  0.420626789      0.270320386     -0.245454505       3260.62524      -2.99197006    
  0.420626789      0.270320386     -0.327272713       3260.62524      -2.99197006    
  0.327430397      0.377874792     -0.327272713       3260.62524      -2.99197006    
  0.207707494      0.454816014     -0.245454505       1715.09326      -2.79693794    
  0.327430397      0.377874792     -0.245454505       1715.09326      -2.79693794    
  0.327430397      0.377874792     -0.327272713       1715.09326      -2.79693794    
  0.207707494      0.454816014     -0.327272713       1715.09326      -2.79693794    
   7.11574182E-02  0.494910687     -0.245454505       1021.52301      -1.66399872    
  0.207707494      0.454816014     -0.245454505       1021.52301      -1.66399872    
  0.207707494      0.454816014     -0.327272713       1021.52301      -1.66399872    
   7.11574182E-02  0.494910687     -0.327272713       1021.52301      -1.66399872    
  -7.11574182E-02  0.494910687     -0.245454505       2016.80774      -1.06344223    
   7.11574182E-02  0.494910687     -0.245454505       2016.80774      -1.06344223    
   7.11574182E-02  0.494910687     -0.327272713       2016.80774      -1.06344223    
  -7.11574182E-02  0.494910687     -0.327272713       2016.80774      -1.06344223    
 -0.207707494      0.454816014     -0.245454505       2988.65063      -1.07265162    
  -7.11574182E-02  0.494910687     -0.245454505       2988.65063      -1.07265162    
  -7.11574182E-02  0.494910687     -0.327272713       2988.65063      -1.07265162    
 -0.207707494      0.454816014     -0.327272713       2988.65063      -1.07265162    
 -0.327430397      0.377874792     -0.245454505       3620.53223      -1.20188475    
 -0.207707494      0.454816014     -0.245454505       3620.53223      -1.20188475    
 -0.207707494      0.454816014     -0.327272713       3620.53223      -1.20188475    
 -0.327430397      0.377874792     -0.327272713       3620.53223      -1.20188475    
 -0.420626789      0.270320386     -0.245454505       3973.88745      -1.35471165    
 -0.327430397      0.377874792     -0.245454505       3973.88745      -1.35471165    
 -0.327430397      0.377874792     -0.327272713       3973.88745      -1.35471165    
 -0.420626789      0.270320386     -0.327272713       3973.88745      -1.35471165    
 -0.479746491      0.140866295     -0.245454505       4154.82471      -1.48453379    
 -0.420626789      0.270320386     -0.245454505       4154.82471      -1.48453379    
 -0.420626789      0.270320386     -0.327272713       4154.82471      -1.48453379    
 -0.479746491      0.140866295     -0.327272713       4154.82471      -1.48453379    
 -0.500000000       2.84000009E-16 -0.245454505       4232.74365      -1.55849099    
 -0.479746491      0.140866295     -0.245454505       4232.74365      -1.55849099    
 -0.479746491      0.140866295     -0.327272713       4232.74365      -1.55849099    
 -0.500000000       2.84000009E-16 -0.327272713       4232.74365      -1.55849099    
  0.479746491      0.140866295     -0.327272713       4531.34033      -2.99911761    
  0.500000000       0.00000000     -0.327272713       4531.34033      -2.99911761    
  0.500000000       0.00000000     -0.409090906       4531.34033      -2.99911761    
  0.479746491      0.140866295     -0.409090906       4531.34033      -2.99911761    
  0.420626789      0.270320386     -0.327272713       3898.26123      -3.00507593    
  0.479746491      0.140866295     -0.327272713       3898.26123      -3.00507593    
  0.479746491      0.140866295     -0.409090906       3898.26123      -3.00507593    
  0.420626789      0.270320386     -0.409090906       3898.26123      -3.00507593    
  0.327430397      0.377874792     -0.327272713       2775.36255      -2.98729944    
  0.420626789      0.270320386     -0.327272713       2775.36255      -2.98729944    
  0.420626789      0.270320386     -0.409090906       2775.36255      -2.98729944    
  0.327430397      0.377874792     -0.409090906       2775.36255      -2.98729944    
  0.207707494      0.454816014     -0.327272713       1463.97937      -2.79074860    
  0.327430397      0.377874792     -0.327272713       1463.97937      -2.79074860    
  0.327430397      0.377874792     -0.409090906       1463.97937      -2.79074860    
  0.207707494      0.454816014     -0.409090906       1463.97937      -2.79074860    
   7.11574182E-02  0.494910687     -0.327272713       876.044678      -1.66698933    
  0.207707494      0.454816014     -0.327272713       876.044678      -1.66698933    
  0.207707494      0.454816014     -0.409090906       876.044678      -1.66698933    
   7.11574182E-02  0.494910687     -0.409090906       876.044678      -1.66698933    
  -7.11574182E-02  0.494910687     -0.327272713       1716.27075      -1.06646645    
   7.11574182E-02  0.494910687     -0.327272713       1716.27075      -1.06646645    
   7.11574182E-02  0.494910687     -0.409090906       1716.27075      -1.06646645    
  -7.11574182E-02  0.494910687     -0.409090906       1716.27075      -1.06646645    
 -0.207707494      0.454816014     -0.327272713       2539.69092      -1.07403648    
  -7.11574182E-02  0.494910687     -0.327272713       2539.69092      -1.07403648    
  -7.11574182E-02  0.494910687     -0.409090906       2539.69092      -1.07403648    
 -0.207707494      0.454816014     -0.409090906       2539.69092      -1.07403648    
 -0.327430397      0.377874792     -0.327272713       3074.69336      -1.20253301    
 -0.207707494      0.454816014     -0.327272713       3074.69336      -1.20253301    
 -0.207707494      0.454816014     -0.409090906       3074.69336      -1.20253301    
 -0.327430397      0.377874792     -0.409090906       3074.69336      -1.20253301    
 -0.420626789      0.270320386     -0.327272713       3373.05615      -1.35502410    
 -0.327430397      0.377874792     -0.327272713       3373.05615      -1.35502410    
 -0.327430397      0.377874792     -0.409090906       3373.05615      -1.35502410    
 -0.420626789      0.270320386     -0.409090906       3373.05615      -1.35502410    
 -0.479746491      0.140866295     -0.327272713       3525.19702      -1.48472869    
 -0.420626789      0.270320386     -0.327272713       3525.19702      -1.48472869    
 -0.420626789      0.270320386     -0.409090906       3525.19702      -1.48472869    
 -0.479746491      0.140866295     -0.409090906       3525.19702      -1.48472869    
 -0.500000000       2.84000009E-16 -0.327272713       3590.48169      -1.55866742    
 -0.479746491      0.140866295     -0.327272713       3590.48169      -1.55866742    
 -0.479746491      0.140866295     -0.409090906       3590.48169      -1.55866742    
 -0.500000000       2.84000009E-16 -0.409090906       3590.48169      -1.55866742    
  0.479746491      0.140866295     -0.409090906       3875.82397      -2.99310946    
  0.500000000       0.00000000     -0.409090906       3875.82397      -2.99310946    
  0.500000000       0.00000000     -0.490909100       3875.82397      -2.99310946    
  0.479746491      0.140866295     -0.490909100       3875.82397      -2.99310946    
  0.420626789      0.270320386     -0.409090906       3335.42554      -2.99855375    
  0.479746491      0.140866295     -0.409090906       3335.42554      -2.99855375    
  0.479746491      0.140866295     -0.490909100       3335.42554      -2.99855375    
  0.420626789      0.270320386     -0.490909100       3335.42554      -2.99855375    
  0.327430397      0.377874792     -0.409090906       2377.32031      -2.97940922    
  0.420626789      0.270320386     -0.409090906       2377.32031      -2.97940922    
  0.420626789      0.270320386     -0.490909100       2377.32031      -2.97940922    
  0.327430397      0.377874792     -0.490909100       2377.32031      -2.97940922    
  0.207707494      0.454816014     -0.409090906       1260.41296      -2.78019881    
  0.327430397      0.377874792     -0.409090906       1260.41296      -2.78019881    
  0.327430397      0.377874792     -0.490909100       1260.41296      -2.78019881    
  0.207707494      0.454816014     -0.490909100       1260.41296      -2.78019881    
   7.11574182E-02  0.494910687     -0.409090906       760.461609      -1.67242754    
  0.207707494      0.454816014     -0.409090906       760.461609      -1.67242754    
  0.207707494      0.454816014     -0.490909100       760.461609      -1.67242754    
   7.11574182E-02  0.494910687     -0.490909100       760.461609      -1.67242754    
  -7.11574182E-02  0.494910687     -0.409090906       1469.94360      -1.07203388    
   7.11574182E-02  0.494910687     -0.409090906       1469.94360      -1.07203388    
   7.11574182E-02  0.494910687     -0.490909100       1469.94360      -1.07203388    
  -7.11574182E-02  0.494910687     -0.490909100       1469.94360      -1.07203388    
 -0.207707494      0.454816014     -0.409090906       2169.96216      -1.07660031    
  -7.11574182E-02  0.494910687     -0.409090906       2169.96216      -1.07660031    
  -7.11574182E-02  0.494910687     -0.490909100       2169.96216      -1.07660031    
 -0.207707494      0.454816014     -0.490909100       2169.96216      -1.07660031    
 -0.327430397      0.377874792     -0.409090906       2624.47778      -1.20363724    
 -0.207707494      0.454816014     -0.409090906       2624.47778      -1.20363724    
 -0.207707494      0.454816014     -0.490909100       2624.47778      -1.20363724    
 -0.327430397      0.377874792     -0.490909100       2624.47778      -1.20363724    
 -0.420626789      0.270320386     -0.409090906       2876.91113      -1.35534716    
 -0.327430397      0.377874792     -0.409090906       2876.91113      -1.35534716    
 -0.327430397      0.377874792     -0.490909100       2876.91113      -1.35534716    
 -0.420626789      0.270320386     -0.490909100       2876.91113      -1.35534716    
 -0.479746491      0.140866295     -0.409090906       3004.75415      -1.48466825    
 -0.420626789      0.270320386     -0.409090906       3004.75415      -1.48466825    
 -0.420626789      0.270320386     -0.490909100       3004.75415      -1.48466825    
 -0.479746491      0.140866295     -0.490909100       3004.75415      -1.48466825    
 -0.500000000       2.84000009E-16 -0.409090906       3059.26440      -1.55846703    
 -0.479746491      0.140866295     -0.409090906       3059.26440      -1.55846703    
 -0.479746491      0.140866295     -0.490909100       3059.26440      -1.55846703    
 -0.500000000       2.84000009E-16 -0.490909100       3059.26440      -1.55846703    
  0.479746491      0.140866295     -0.490909100       3339.31079      -2.98367333    
  0.500000000       0.00000000     -0.490909100       3339.31079      -2.98367333    
  0.500000000       0.00000000     -0.572727323       3339.31079      -2.98367333    
  0.479746491      0.140866295     -0.572727323       3339.31079      -2.98367333    
  0.420626789      0.270320386     -0.490909100       2875.44678      -2.98824596    
  0.479746491      0.140866295     -0.490909100       2875.44678      -2.98824596    
  0.479746491      0.140866295     -0.572727323       2875.44678      -2.98824596    
  0.420626789      0.270320386     -0.572727323       2875.44678      -2.98824596    
  0.327430397      0.377874792     -0.490909100       2053.58447      -2.96682215    
  0.420626789      0.270320386     -0.490909100       2053.58447      -2.96682215    
  0.420626789      0.270320386     -0.572727323       2053.58447      -2.96682215    
  0.327430397      0.377874792     -0.572727323       2053.58447      -2.96682215    
  0.207707494      0.454816014     -0.490909100       1098.28162      -2.76343203    
  0.327430397      0.377874792     -0.490909100       1098.28162      -2.76343203    
  0.327430397      0.377874792     -0.572727323       1098.28162      -2.76343203    
  0.207707494      0.454816014     -0.572727323       1098.28162      -2.76343203    
   7.11574182E-02  0.494910687     -0.490909100       671.358215      -1.68193650    
  0.207707494      0.454816014     -0.490909100       671.358215      -1.68193650    
  0.207707494      0.454816014     -0.572727323       671.358215      -1.68193650    
   7.11574182E-02  0.494910687     -0.572727323       671.358215      -1.68193650    
  -7.11574182E-02  0.494910687     -0.490909100       1269.52954      -1.08170867    
   7.11574182E-02  0.494910687     -0.490909100       1269.52954      -1.08170867    
   7.11574182E-02  0.494910687     -0.572727323       1269.52954      -1.08170867    
  -7.11574182E-02  0.494910687     -0.572727323       1269.52954      -1.08170867    
 -0.207707494      0.454816014     -0.490909100       1866.91101      -1.08107734    
  -7.11574182E-02  0.494910687     -0.490909100       1866.91101      -1.08107734    
  -7.11574182E-02  0.494910687     -0.572727323       1866.91101      -1.08107734    
 -0.207707494      0.454816014     -0.572727323       1866.91101      -1.08107734    
 -0.327430397      0.377874792     -0.490909100       2254.67993      -1.20544255    
 -0.207707494      0.454816014     -0.490909100       2254.67993      -1.20544255    
 -0.207707494      0.454816014     -0.572727323       2254.67993      -1.20544255    
 -0.327430397      0.377874792     -0.572727323       2254.67993      -1.20544255    
 -0.420626789      0.270320386     -0.490909100       2468.79419      -1.35558605    
 -0.327430397      0.377874792     -0.490909100       2468.79419      -1.35558605    
 -0.327430397      0.377874792     -0.572727323       2468.79419      -1.35558605    
 -0.420626789      0.270320386     -0.572727323       2468.79419      -1.35558605    
 -0.479746491      0.140866295     -0.490909100       2576.08179      -1.48402464    
 -0.420626789      0.270320386     -0.490909100       2576.08179      -1.48402464    
 -0.420626789      0.270320386     -0.572727323       2576.08179      -1.48402464    
 -0.479746491      0.140866295     -0.572727323       2576.08179      -1.48402464    
 -0.500000000       2.84000009E-16 -0.490909100       2621.35034      -1.55744231    
 -0.479746491      0.140866295     -0.490909100       2621.35034      -1.55744231    
 -0.479746491      0.140866295     -0.572727323       2621.35034      -1.55744231    
 -0.500000000       2.84000009E-16 -0.572727323       2621.35034      -1.55744231    
  0.479746491      0.140866295     -0.572727323       2903.32471      -2.96896052    
  0.500000000       0.00000000     -0.572727323       2903.32471      -2.96896052    
  0.500000000       0.00000000     -0.654545426       2903.32471      -2.96896052    
  0.479746491      0.140866295     -0.654545426       2903.32471      -2.96896052    
  0.420626789      0.270320386     -0.572727323       2502.79810      -2.97208285    
  0.479746491      0.140866295     -0.572727323       2502.79810      -2.97208285    
  0.479746491      0.140866295     -0.654545426       2502.79810      -2.97208285    
  0.420626789      0.270320386     -0.654545426       2502.79810      -2.97208285    
  0.327430397      0.377874792     -0.572727323       1793.91797      -2.94695592    
  0.420626789      0.270320386     -0.572727323       1793.91797      -2.94695592    
  0.420626789      0.270320386     -0.654545426       1793.91797      -2.94695592    
  0.327430397      0.377874792     -0.654545426       1793.91797      -2.94695592    
  0.207707494      0.454816014     -0.572727323       973.739868      -2.73745465    
  0.327430397      0.377874792     -0.572727323       973.739868      -2.73745465    
  0.327430397      0.377874792     -0.654545426       973.739868      -2.73745465    
  0.207707494      0.454816014     -0.654545426       973.739868      -2.73745465    
   7.11574182E-02  0.494910687     -0.572727323       607.128113      -1.69858813    
  0.207707494      0.454816014     -0.572727323       607.128113      -1.69858813    
  0.207707494      0.454816014     -0.654545426       607.128113      -1.69858813    
   7.11574182E-02  0.494910687     -0.654545426       607.128113      -1.69858813    
  -7.11574182E-02  0.494910687     -0.572727323       1108.11182      -1.09862041    
   7.11574182E-02  0.494910687     -0.572727323       1108.11182      -1.09862041    
   7.11574182E-02  0.494910687     -0.654545426       1108.11182      -1.09862041    
  -7.11574182E-02  0.494910687     -0.654545426       1108.11182      -1.09862041    
 -0.207707494      0.454816014     -0.572727323       1619.52490      -1.08906186    
  -7.11574182E-02  0.494910687     -0.572727323       1619.52490      -1.08906186    
  -7.11574182E-02  0.494910687     -0.654545426       1619.52490      -1.08906186    
 -0.207707494      0.454816014     -0.654545426       1619.52490      -1.08906186    
 -0.327430397      0.377874792     -0.572727323       1951.86023      -1.20864594    
 -0.207707494      0.454816014     -0.572727323       1951.86023      -1.20864594    
 -0.207707494      0.454816014     -0.654545426       1951.86023      -1.20864594    
 -0.327430397      0.377874792     -0.654545426       1951.86023      -1.20864594    
 -0.420626789      0.270320386     -0.572727323       2133.96216      -1.35582078    
 -0.327430397      0.377874792     -0.572727323       2133.96216      -1.35582078    
 -0.327430397      0.377874792     -0.654545426       2133.96216      -1.35582078    
 -0.420626789      0.270320386     -0.654545426       2133.96216      -1.35582078    
 -0.479746491      0.140866295     -0.572727323       2223.77197      -1.48245513    
 -0.420626789      0.270320386     -0.572727323       2223.77197      -1.48245513    
 -0.420626789      0.270320386     -0.654545426       2223.77197      -1.48245513    