 VARIABLES="X" "Y" "Z" "abs(p) (Pa)" "angle(p) (rad)"
ZONE N=    528,E =     462, F=FEPOINT, ET=QUADRILATERAL
  0.479746491      0.140866295       0.00000000       7417.39551       2.87569594    
  0.500000000       0.00000000       0.00000000       7417.39551       2.87569594    
  0.500000000       0.00000000      -8.18181783E-02   7417.39551       2.87569594    
  0.479746491      0.140866295      -8.18181783E-02   7417.39551       2.87569594    
  0.420626789      0.270320386       0.00000000       6534.11230       2.87430453    
  0.479746491      0.140866295       0.00000000       6534.11230       2.87430453    
  0.479746491      0.140866295      -8.18181783E-02   6534.11230       2.87430453    
  0.420626789      0.270320386      -8.18181783E-02   6534.11230       2.87430453    
  0.327430397      0.377874792       0.00000000       4917.08838       2.89377546    
  0.420626789      0.270320386       0.00000000       4917.08838       2.89377546    
  0.420626789      0.270320386      -8.18181783E-02   4917.08838       2.89377546    
  0.327430397      0.377874792      -8.18181783E-02   4917.08838       2.89377546    
  0.207707494      0.454816014       0.00000000       2887.61377       3.03559661    
  0.327430397      0.377874792       0.00000000       2887.61377       3.03559661    
  0.327430397      0.377874792      -8.18181783E-02   2887.61377       3.03559661    
  0.207707494      0.454816014      -8.18181783E-02   2887.61377       3.03559661    
   7.11574182E-02  0.494910687       0.00000000       1411.73511      -2.36928320    
  0.207707494      0.454816014       0.00000000       1411.73511      -2.36928320    
  0.207707494      0.454816014      -8.18181783E-02   1411.73511      -2.36928320    
   7.11574182E-02  0.494910687      -8.18181783E-02   1411.73511      -2.36928320    
  -7.11574182E-02  0.494910687       0.00000000       2585.53564      -1.39300597    
   7.11574182E-02  0.494910687       0.00000000       2585.53564      -1.39300597    
   7.11574182E-02  0.494910687      -8.18181783E-02   2585.53564      -1.39300597    
  -7.11574182E-02  0.494910687      -8.18181783E-02   2585.53564      -1.39300597    
 -0.207707494      0.454816014       0.00000000       4355.66455      -1.25964713    
  -7.11574182E-02  0.494910687       0.00000000       4355.66455      -1.25964713    
  -7.11574182E-02  0.494910687      -8.18181783E-02   4355.66455      -1.25964713    
 -0.207707494      0.454816014      -8.18181783E-02   4355.66455      -1.25964713    
 -0.327430397      0.377874792       0.00000000       5783.67871      -1.28552353    
 -0.207707494      0.454816014       0.00000000       5783.67871      -1.28552353    
 -0.207707494      0.454816014      -8.18181783E-02   5783.67871      -1.28552353    
 -0.327430397      0.377874792      -8.18181783E-02   5783.67871      -1.28552353    
 -0.420626789      0.270320386       0.00000000       6771.41846      -1.34417927    
 -0.327430397      0.377874792       0.00000000       6771.41846      -1.34417927    
 -0.327430397      0.377874792      -8.18181783E-02   6771.41846      -1.34417927    
 -0.420626789      0.270320386      -8.18181783E-02   6771.41846      -1.34417927    
 -0.479746491      0.140866295       0.00000000       7363.32471      -1.39804697    
 -0.420626789      0.270320386       0.00000000       7363.32471      -1.39804697    
 -0.420626789      0.270320386      -8.18181783E-02   7363.32471      -1.39804697    
 -0.479746491      0.140866295      -8.18181783E-02   7363.32471      -1.39804697    
 -0.500000000       2.84000009E-16   0.00000000       7634.20361      -1.42916858    
 -0.479746491      0.140866295       0.00000000       7634.20361      -1.42916858    
 -0.479746491      0.140866295      -8.18181783E-02   7634.20361      -1.42916858    
 -0.500000000       2.84000009E-16  -8.18181783E-02   7634.20361      -1.42916858    
  0.479746491      0.140866295      -8.18181783E-02   6566.60498       2.87535763    
  0.500000000       0.00000000      -8.18181783E-02   6566.60498       2.87535763    
  0.500000000       0.00000000     -0.163636401       6566.60498       2.87535763    
  0.479746491      0.140866295     -0.163636401       6566.60498       2.87535763    
  0.420626789      0.270320386      -8.18181783E-02   5784.50879       2.87378120    
  0.479746491      0.140866295      -8.18181783E-02   5784.50879       2.87378120    
  0.479746491      0.140866295     -0.163636401       5784.50879       2.87378120    
  0.420626789      0.270320386     -0.163636401       5784.50879       2.87378120    
  0.327430397      0.377874792      -8.18181783E-02   4352.61768       2.89280081    
  0.420626789      0.270320386      -8.18181783E-02   4352.61768       2.89280081    
  0.420626789      0.270320386     -0.163636401       4352.61768       2.89280081    
  0.327430397      0.377874792     -0.163636401       4352.61768       2.89280081    
  0.207707494      0.454816014      -8.18181783E-02   2554.85840       3.03358626    
  0.327430397      0.377874792      -8.18181783E-02   2554.85840       3.03358626    
  0.327430397      0.377874792     -0.163636401       2554.85840       3.03358626    
  0.207707494      0.454816014     -0.163636401       2554.85840       3.03358626    
   7.11574182E-02  0.494910687      -8.18181783E-02   1244.47058      -2.37113905    
  0.207707494      0.454816014      -8.18181783E-02   1244.47058      -2.37113905    
  0.207707494      0.454816014     -0.163636401       1244.47058      -2.37113905    
   7.11574182E-02  0.494910687     -0.163636401       1244.47058      -2.37113905    
  -7.11574182E-02  0.494910687      -8.18181783E-02   2283.93579      -1.39196312    
   7.11574182E-02  0.494910687      -8.18181783E-02   2283.93579      -1.39196312    
   7.11574182E-02  0.494910687     -0.163636401       2283.93579      -1.39196312    
  -7.11574182E-02  0.494910687     -0.163636401       2283.93579      -1.39196312    
 -0.207707494      0.454816014      -8.18181783E-02   3850.85303      -1.25929976    
  -7.11574182E-02  0.494910687      -8.18181783E-02   3850.85303      -1.25929976    
  -7.11574182E-02  0.494910687     -0.163636401       3850.85303      -1.25929976    
 -0.207707494      0.454816014     -0.163636401       3850.85303      -1.25929976    
 -0.327430397      0.377874792      -8.18181783E-02   5113.94287      -1.28572679    
 -0.207707494      0.454816014      -8.18181783E-02   5113.94287      -1.28572679    
 -0.207707494      0.454816014     -0.163636401       5113.94287      -1.28572679    
 -0.327430397      0.377874792     -0.163636401       5113.94287      -1.28572679    
 -0.420626789      0.270320386      -8.18181783E-02   5986.99072      -1.34478915    
 -0.327430397      0.377874792      -8.18181783E-02   5986.99072      -1.34478915    
 -0.327430397      0.377874792     -0.163636401       5986.99072      -1.34478915    
 -0.420626789      0.270320386     -0.163636401       5986.99072      -1.34478915    
 -0.479746491      0.140866295      -8.18181783E-02   6509.80566      -1.39894044    
 -0.420626789      0.270320386      -8.18181783E-02   6509.80566      -1.39894044    
 -0.420626789      0.270320386     -0.163636401       6509.80566      -1.39894044    
 -0.479746491      0.140866295     -0.163636401       6509.80566      -1.39894044    
 -0.500000000       2.84000009E-16  -8.18181783E-02   6748.92529      -1.43021059    
 -0.479746491      0.140866295      -8.18181783E-02   6748.92529      -1.43021059    
 -0.479746491      0.140866295     -0.163636401       6748.92529      -1.43021059    
 -0.500000000       2.84000009E-16 -0.163636401       6748.92529      -1.43021059    
  0.479746491      0.140866295     -0.163636401       5820.15674       2.87661386    
  0.500000000       0.00000000     -0.163636401       5820.15674       2.87661386    
  0.500000000       0.00000000     -0.245454505       5820.15674       2.87661386    
  0.479746491      0.140866295     -0.245454505       5820.15674       2.87661386    
  0.420626789      0.270320386     -0.163636401       5127.12842       2.87509346    
  0.479746491      0.140866295     -0.163636401       5127.12842       2.87509346    
  0.479746491      0.140866295     -0.245454505       5127.12842       2.87509346    
  0.420626789      0.270320386     -0.245454505       5127.12842       2.87509346    
  0.327430397      0.377874792     -0.163636401       3858.40625       2.89427233    
  0.420626789      0.270320386     -0.163636401       3858.40625       2.89427233    
  0.420626789      0.270320386     -0.245454505       3858.40625       2.89427233    
  0.327430397      0.377874792     -0.245454505       3858.40625       2.89427233    
  0.207707494      0.454816014     -0.163636401       2265.92432       3.03544140    
  0.327430397      0.377874792     -0.163636401       2265.92432       3.03544140    
  0.327430397      0.377874792     -0.245454505       2265.92432       3.03544140    
  0.207707494      0.454816014     -0.245454505       2265.92432       3.03544140    
   7.11574182E-02  0.494910687     -0.163636401       1106.19250      -2.37066841    
  0.207707494      0.454816014     -0.163636401       1106.19250      -2.37066841    
  0.207707494      0.454816014     -0.245454505       1106.19250      -2.37066841    
   7.11574182E-02  0.494910687     -0.245454505       1106.19250      -2.37066841    
  -7.11574182E-02  0.494910687     -0.163636401       2025.11829      -1.39303207    
   7.11574182E-02  0.494910687     -0.163636401       2025.11829      -1.39303207    
   7.11574182E-02  0.494910687     -0.245454505       2025.11829      -1.39303207    
  -7.11574182E-02  0.494910687     -0.245454505       2025.11829      -1.39303207    
 -0.207707494      0.454816014     -0.163636401       3412.24292      -1.25987732    
  -7.11574182E-02  0.494910687     -0.163636401       3412.24292      -1.25987732    
  -7.11574182E-02  0.494910687     -0.245454505       3412.24292      -1.25987732    
 -0.207707494      0.454816014     -0.245454505       3412.24292      -1.25987732    
 -0.327430397      0.377874792     -0.163636401       4530.41748      -1.28612399    
 -0.207707494      0.454816014     -0.163636401       4530.41748      -1.28612399    
 -0.207707494      0.454816014     -0.245454505       4530.41748      -1.28612399    
 -0.327430397      0.377874792     -0.245454505       4530.41748      -1.28612399    
 -0.420626789      0.270320386     -0.163636401       5303.02930      -1.34513128    
 -0.327430397      0.377874792     -0.163636401       5303.02930      -1.34513128    
 -0.327430397      0.377874792     -0.245454505       5303.02930      -1.34513128    
 -0.420626789      0.270320386     -0.245454505       5303.02930      -1.34513128    
 -0.479746491      0.140866295     -0.163636401       5765.47705      -1.39927542    
 -0.420626789      0.270320386     -0.163636401       5765.47705      -1.39927542    
 -0.420626789      0.270320386     -0.245454505       5765.47705      -1.39927542    
 -0.479746491      0.140866295     -0.245454505       5765.47705      -1.39927542    
 -0.500000000       2.84000009E-16 -0.163636401       5976.89893      -1.43055034    
 -0.479746491      0.140866295     -0.163636401       5976.89893      -1.43055034    
 -0.479746491      0.140866295     -0.245454505       5976.89893      -1.43055034    
 -0.500000000       2.84000009E-16 -0.245454505       5976.89893      -1.43055034    
  0.479746491      0.140866295     -0.245454505       5175.15576       2.87909341    
  0.500000000       0.00000000     -0.245454505       5175.15576       2.87909341    
  0.500000000       0.00000000     -0.327272713       5175.15576       2.87909341    
  0.479746491      0.140866295     -0.327272713       5175.15576       2.87909341    
  0.420626789      0.270320386     -0.245454505       4559.18994       2.87773871    
  0.479746491      0.140866295     -0.245454505       4559.18994       2.87773871    
  0.479746491      0.140866295     -0.327272713       4559.18994       2.87773871    
  0.420626789      0.270320386     -0.327272713       4559.18994       2.87773871    
  0.327430397      0.377874792     -0.245454505       3431.73071       2.89736652    
  0.420626789      0.270320386     -0.245454505       3431.73071       2.89736652    
  0.420626789      0.270320386     -0.327272713       3431.73071       2.89736652    
  0.327430397      0.377874792     -0.327272713       3431.73071       2.89736652    
  0.207707494      0.454816014     -0.245454505       2017.41333       3.03963161    
  0.327430397      0.377874792     -0.245454505       2017.41333       3.03963161    
  0.327430397      0.377874792     -0.327272713       2017.41333       3.03963161    
  0.207707494      0.454816014     -0.327272713       2017.41333       3.03963161    
   7.11574182E-02  0.494910687     -0.245454505       990.162292      -2.36869407    
  0.207707494      0.454816014     -0.245454505       990.162292      -2.36869407    
  0.207707494      0.454816014     -0.327272713       990.162292      -2.36869407    
   7.11574182E-02  0.494910687     -0.327272713       990.162292      -2.36869407    
  -7.11574182E-02  0.494910687     -0.245454505       1803.83459      -1.39509964    
   7.11574182E-02  0.494910687     -0.245454505       1803.83459      -1.39509964    
   7.11574182E-02  0.494910687     -0.327272713       1803.83459      -1.39509964    
  -7.11574182E-02  0.494910687     -0.327272713       1803.83459      -1.39509964    
 -0.207707494      0.454816014     -0.245454505       3034.71460      -1.26091647    
  -7.11574182E-02  0.494910687     -0.245454505       3034.71460      -1.26091647    
  -7.11574182E-02  0.494910687     -0.327272713       3034.71460      -1.26091647    
 -0.207707494      0.454816014     -0.327272713       3034.71460      -1.26091647    
 -0.327430397      0.377874792     -0.245454505       4027.14307      -1.28667068    
 -0.207707494      0.454816014     -0.245454505       4027.14307      -1.28667068    
 -0.207707494      0.454816014     -0.327272713       4027.14307      -1.28667068    
 -0.327430397      0.377874792     -0.327272713       4027.14307      -1.28667068    
 -0.420626789      0.270320386     -0.245454505       4712.54980      -1.34544384    
 -0.327430397      0.377874792     -0.245454505       4712.54980      -1.34544384    
 -0.327430397      0.377874792     -0.327272713       4712.54980      -1.34544384    
 -0.420626789      0.270320386     -0.327272713       4712.54980      -1.34544384    
 -0.479746491      0.140866295     -0.245454505       5122.50244      -1.39947689    
 -0.420626789      0.270320386     -0.245454505       5122.50244      -1.39947689    
 -0.420626789      0.270320386     -0.327272713       5122.50244      -1.39947689    
 -0.479746491      0.140866295     -0.327272713       5122.50244      -1.39947689    
 -0.500000000       2.84000009E-16 -0.245454505       5309.79443      -1.43070805    
 -0.479746491      0.140866295     -0.245454505       5309.79443      -1.43070805    
 -0.479746491      0.140866295     -0.327272713       5309.79443      -1.43070805    
 -0.500000000       2.84000009E-16 -0.327272713       5309.79443      -1.43070805    
  0.479746491      0.140866295     -0.327272713       4620.03516       2.88319373    
  0.500000000       0.00000000     -0.327272713       4620.03516       2.88319373    
  0.500000000       0.00000000     -0.409090906       4620.03516       2.88319373    
  0.479746491      0.140866295     -0.409090906       4620.03516       2.88319373    
  0.420626789      0.270320386     -0.327272713       4070.54614       2.88214374    
  0.479746491      0.140866295     -0.327272713       4070.54614       2.88214374    
  0.479746491      0.140866295     -0.409090906       4070.54614       2.88214374    
  0.420626789      0.270320386     -0.409090906       4070.54614       2.88214374    
  0.327430397      0.377874792     -0.327272713       3065.03955       2.90259171    
  0.420626789      0.270320386     -0.327272713       3065.03955       2.90259171    
  0.420626789      0.270320386     -0.409090906       3065.03955       2.90259171    
  0.327430397      0.377874792     -0.409090906       3065.03955       2.90259171    
  0.207707494      0.454816014     -0.327272713       1805.00903       3.04684162    
  0.327430397      0.377874792     -0.327272713       1805.00903       3.04684162    
  0.327430397      0.377874792     -0.409090906       1805.00903       3.04684162    
  0.207707494      0.454816014     -0.409090906       1805.00903       3.04684162    
   7.11574182E-02  0.494910687     -0.327272713       894.222107      -2.36501241    
  0.207707494      0.454816014     -0.327272713       894.222107      -2.36501241    
  0.207707494      0.454816014     -0.409090906       894.222107      -2.36501241    
   7.11574182E-02  0.494910687     -0.409090906       894.222107      -2.36501241    
  -7.11574182E-02  0.494910687     -0.327272713       1615.83533      -1.39857256    
   7.11574182E-02  0.494910687     -0.327272713       1615.83533      -1.39857256    
   7.11574182E-02  0.494910687     -0.409090906       1615.83533      -1.39857256    
  -7.11574182E-02  0.494910687     -0.409090906       1615.83533      -1.39857256    
 -0.207707494      0.454816014     -0.327272713       2711.13843      -1.26263154    
  -7.11574182E-02  0.494910687     -0.327272713       2711.13843      -1.26263154    
  -7.11574182E-02  0.494910687     -0.409090906       2711.13843      -1.26263154    
 -0.207707494      0.454816014     -0.409090906       2711.13843      -1.26263154    
 -0.327430397      0.377874792     -0.327272713       3594.68140      -1.28747869    
 -0.207707494      0.454816014     -0.327272713       3594.68140      -1.28747869    
 -0.207707494      0.454816014     -0.409090906       3594.68140      -1.28747869    
 -0.327430397      0.377874792     -0.409090906       3594.68140      -1.28747869    
 -0.420626789      0.270320386     -0.327272713       4204.48682      -1.34578073    
 -0.327430397      0.377874792     -0.327272713       4204.48682      -1.34578073    
 -0.327430397      0.377874792     -0.409090906       4204.48682      -1.34578073    
 -0.420626789      0.270320386     -0.409090906       4204.48682      -1.34578073    
 -0.479746491      0.140866295     -0.327272713       4568.82422      -1.39956498    
 -0.420626789      0.270320386     -0.327272713       4568.82422      -1.39956498    
 -0.420626789      0.270320386     -0.409090906       4568.82422      -1.39956498    
 -0.479746491      0.140866295     -0.409090906       4568.82422      -1.39956498    
 -0.500000000       2.84000009E-16 -0.327272713       4735.10205      -1.43068731    
 -0.479746491      0.140866295     -0.327272713       4735.10205      -1.43068731    
 -0.479746491      0.140866295     -0.409090906       4735.10205      -1.43068731    
 -0.500000000       2.84000009E-16 -0.409090906       4735.10205      -1.43068731    
  0.479746491      0.140866295     -0.409090906       4144.19287       2.88946772    
  0.500000000       0.00000000     -0.409090906       4144.19287       2.88946772    
  0.500000000       0.00000000     -0.490909100       4144.19287       2.88946772    
  0.479746491      0.140866295     -0.490909100       4144.19287       2.88946772    
  0.420626789      0.270320386     -0.409090906       3651.91553       2.88891792    
  0.479746491      0.140866295     -0.409090906       3651.91553       2.88891792    
  0.479746491      0.140866295     -0.490909100       3651.91553       2.88891792    
  0.420626789      0.270320386     -0.490909100       3651.91553       2.88891792    
  0.327430397      0.377874792     -0.409090906       2751.47559       2.91069412    
  0.420626789      0.270320386     -0.409090906       2751.47559       2.91069412    
  0.420626789      0.270320386     -0.490909100       2751.47559       2.91069412    
  0.327430397      0.377874792     -0.490909100       2751.47559       2.91069412    
  0.207707494      0.454816014     -0.409090906       1624.94373       3.05811429    
  0.327430397      0.377874792     -0.409090906       1624.94373       3.05811429    
  0.327430397      0.377874792     -0.490909100       1624.94373       3.05811429    
  0.207707494      0.454816014     -0.490909100       1624.94373       3.05811429    
   7.11574182E-02  0.494910687     -0.409090906       816.864014      -2.35926199    
  0.207707494      0.454816014     -0.409090906       816.864014      -2.35926199    
  0.207707494      0.454816014     -0.490909100       816.864014      -2.35926199    
   7.11574182E-02  0.494910687     -0.490909100       816.864014      -2.35926199    
  -7.11574182E-02  0.494910687     -0.409090906       1457.63135      -1.40404630    
   7.11574182E-02  0.494910687     -0.409090906       1457.63135      -1.40404630    
   7.11574182E-02  0.494910687     -0.490909100       1457.63135      -1.40404630    
  -7.11574182E-02  0.494910687     -0.490909100       1457.63135      -1.40404630    
 -0.207707494      0.454816014     -0.409090906       2435.35083      -1.26532054    
  -7.11574182E-02  0.494910687     -0.409090906       2435.35083      -1.26532054    
  -7.11574182E-02  0.494910687     -0.490909100       2435.35083      -1.26532054    
 -0.207707494      0.454816014     -0.490909100       2435.35083      -1.26532054    
 -0.327430397      0.377874792     -0.409090906       3224.76465      -1.28866255    
 -0.207707494      0.454816014     -0.409090906       3224.76465      -1.28866255    
 -0.207707494      0.454816014     -0.490909100       3224.76465      -1.28866255    
 -0.327430397      0.377874792     -0.490909100       3224.76465      -1.28866255    
 -0.420626789      0.270320386     -0.409090906       3769.13159      -1.34614205    
 -0.327430397      0.377874792     -0.409090906       3769.13159      -1.34614205    
 -0.327430397      0.377874792     -0.490909100       3769.13159      -1.34614205    
 -0.420626789      0.270320386     -0.490909100       3769.13159      -1.34614205    
 -0.479746491      0.140866295     -0.409090906       4093.87012      -1.39946771    
 -0.420626789      0.270320386     -0.409090906       4093.87012      -1.39946771    
 -0.420626789      0.270320386     -0.490909100       4093.87012      -1.39946771    
 -0.479746491      0.140866295     -0.490909100       4093.87012      -1.39946771    
 -0.500000000       2.84000009E-16 -0.409090906       4241.85303      -1.43038058    
 -0.479746491      0.140866295     -0.409090906       4241.85303      -1.43038058    
 -0.479746491      0.140866295     -0.490909100       4241.85303      -1.43038058    
 -0.500000000       2.84000009E-16 -0.490909100       4241.85303      -1.43038058    
  0.479746491      0.140866295     -0.490909100       3737.29370       2.89887738    
  0.500000000       0.00000000     -0.490909100       3737.29370       2.89887738    
  0.500000000       0.00000000     -0.572727323       3737.29370       2.89887738    
  0.479746491      0.140866295     -0.572727323       3737.29370       2.89887738    
  0.420626789      0.270320386     -0.490909100       3294.36548       2.89913654    
  0.479746491      0.140866295     -0.490909100       3294.36548       2.89913654    
  0.479746491      0.140866295     -0.572727323       3294.36548       2.89913654    
  0.420626789      0.270320386     -0.572727323       3294.36548       2.89913654    
  0.327430397      0.377874792     -0.490909100       2484.71362       2.92303395    
  0.420626789      0.270320386     -0.490909100       2484.71362       2.92303395    
  0.420626789      0.270320386     -0.572727323       2484.71362       2.92303395    
  0.327430397      0.377874792     -0.572727323       2484.71362       2.92303395    
  0.207707494      0.454816014     -0.490909100       1474.33447       3.07534432    
  0.327430397      0.377874792     -0.490909100       1474.33447       3.07534432    
  0.327430397      0.377874792     -0.572727323       1474.33447       3.07534432    
  0.207707494      0.454816014     -0.572727323       1474.33447       3.07534432    
   7.11574182E-02  0.494910687     -0.490909100       757.863708      -2.35129499    
  0.207707494      0.454816014     -0.490909100       757.863708      -2.35129499    
  0.207707494      0.454816014     -0.572727323       757.863708      -2.35129499    
   7.11574182E-02  0.494910687     -0.572727323       757.863708      -2.35129499    
  -7.11574182E-02  0.494910687     -0.490909100       1326.21057      -1.41297555    
   7.11574182E-02  0.494910687     -0.490909100       1326.21057      -1.41297555    
   7.11574182E-02  0.494910687     -0.572727323       1326.21057      -1.41297555    
  -7.11574182E-02  0.494910687     -0.572727323       1326.21057      -1.41297555    
 -0.207707494      0.454816014     -0.490909100       2201.31226      -1.26972806    
  -7.11574182E-02  0.494910687     -0.490909100       2201.31226      -1.26972806    
  -7.11574182E-02  0.494910687     -0.572727323       2201.31226      -1.26972806    
 -0.207707494      0.454816014     -0.572727323       2201.31226      -1.26972806    
 -0.327430397      0.377874792     -0.490909100       2909.17358      -1.29054892    
 -0.207707494      0.454816014     -0.490909100       2909.17358      -1.29054892    
 -0.207707494      0.454816014     -0.572727323       2909.17358      -1.29054892    
 -0.327430397      0.377874792     -0.572727323       2909.17358      -1.29054892    
 -0.420626789      0.270320386     -0.490909100       3396.84375      -1.34659696    
 -0.327430397      0.377874792     -0.490909100       3396.84375      -1.34659696    
 -0.327430397      0.377874792     -0.572727323       3396.84375      -1.34659696    
 -0.420626789      0.270320386     -0.572727323       3396.84375      -1.34659696    
 -0.479746491      0.140866295     -0.490909100       3687.17163      -1.39909136    
 -0.420626789      0.270320386     -0.490909100       3687.17163      -1.39909136    
 -0.420626789      0.270320386     -0.572727323       3687.17163      -1.39909136    
 -0.479746491      0.140866295     -0.572727323       3687.17163      -1.39909136    
 -0.500000000       2.84000009E-16 -0.490909100       3819.20508      -1.42961252    
 -0.479746491      0.140866295     -0.490909100       3819.20508      -1.42961252    
 -0.479746491      0.140866295     -0.572727323       3819.20508      -1.42961252    
 -0.500000000       2.84000009E-16 -0.572727323       3819.20508      -1.42961252    
  0.479746491      0.140866295     -0.572727323       3388.77832       2.91290164    
  0.500000000       0.00000000     -0.572727323       3388.77832       2.91290164    
  0.500000000       0.00000000     -0.654545426       3388.77832       2.91290164    
  0.479746491      0.140866295     -0.654545426       3388.77832       2.91290164    
  0.420626789      0.270320386     -0.572727323       2988.85547       2.91446328    
  0.479746491      0.140866295     -0.572727323       2988.85547       2.91446328    
  0.479746491      0.140866295     -0.654545426       2988.85547       2.91446328    
  0.420626789      0.270320386     -0.654545426       2988.85547       2.91446328    
  0.327430397      0.377874792     -0.572727323       2258.53931       2.94171453    
  0.420626789      0.270320386     -0.572727323       2258.53931       2.94171453    
  0.420626789      0.270320386     -0.654545426       2258.53931       2.94171453    
  0.327430397      0.377874792     -0.654545426       2258.53931       2.94171453    
  0.207707494      0.454816014     -0.572727323       1350.77698       3.10137844    
  0.327430397      0.377874792     -0.572727323       1350.77698       3.10137844    
  0.327430397      0.377874792     -0.654545426       1350.77698       3.10137844    
  0.207707494      0.454816014     -0.654545426       1350.77698       3.10137844    
   7.11574182E-02  0.494910687     -0.572727323       717.787231      -2.34093022    
  0.207707494      0.454816014     -0.572727323       717.787231      -2.34093022    
  0.207707494      0.454816014     -0.654545426       717.787231      -2.34093022    
   7.11574182E-02  0.494910687     -0.654545426       717.787231      -2.34093022    
  -7.11574182E-02  0.494910687     -0.572727323       1219.07861      -1.42749834    
   7.11574182E-02  0.494910687     -0.572727323       1219.07861      -1.42749834    
   7.11574182E-02  0.494910687     -0.654545426       1219.07861      -1.42749834    
  -7.11574182E-02  0.494910687     -0.654545426       1219.07861      -1.42749834    
 -0.207707494      0.454816014     -0.572727323       2003.19971      -1.27696836    
  -7.11574182E-02  0.494910687     -0.572727323       2003.19971      -1.27696836    
  -7.11574182E-02  0.494910687     -0.654545426       2003.19971      -1.27696836    
 -0.207707494      0.454816014     -0.654545426       2003.19971      -1.27696836    
 -0.327430397      0.377874792     -0.572727323       2639.76587      -1.29358542    
 -0.207707494      0.454816014     -0.572727323       2639.76587      -1.29358542    
 -0.207707494      0.454816014     -0.654545426       2639.76587      -1.29358542    
 -0.327430397      0.377874792     -0.654545426       2639.76587      -1.29358542    
 -0.420626789      0.270320386     -0.572727323       3077.98608      -1.34716439    
 -0.327430397      0.377874792     -0.572727323       3077.98608      -1.34716439    
 -0.327430397      0.377874792     -0.654545426       3077.98608      -1.34716439    
 -0.420626789      0.270320386     -0.654545426       3077.98608      -1.34716439    
 -0.479746491      0.140866295     -0.572727323       3338.25098      -1.39818001    
 -0.420626789      0.270320386     -0.572727323       3338.25098      -1.39818001    
 -0.420626789      0.270320386     -0.654545426       3338.25098      -1.39818001    