 VARIABLES="X" "Y" "Z" "abs(p) (Pa)" "angle(p) (rad)"
ZONE N=    528,E =     462, F=FEPOINT, ET=QUADRILATERAL
  0.479746491      0.140866295       0.00000000       174.725922       2.30687284    
  0.500000000       0.00000000       0.00000000       174.725922       2.30687284    
  0.500000000       0.00000000      -8.18181783E-02   174.725922       2.30687284    
  0.479746491      0.140866295      -8.18181783E-02   174.725922       2.30687284    
  0.420626789      0.270320386       0.00000000       174.725830       2.30687237    
  0.479746491      0.140866295       0.00000000       174.725830       2.30687237    
  0.479746491      0.140866295      -8.18181783E-02   174.725830       2.30687237    
  0.420626789      0.270320386      -8.18181783E-02   174.725830       2.30687237    
  0.327430397      0.377874792       0.00000000       174.725815       2.30687261    
  0.420626789      0.270320386       0.00000000       174.725815       2.30687261    
  0.420626789      0.270320386      -8.18181783E-02   174.725815       2.30687261    
  0.327430397      0.377874792      -8.18181783E-02   174.725815       2.30687261    
  0.207707494      0.454816014       0.00000000       174.725922       2.30687261    
  0.327430397      0.377874792       0.00000000       174.725922       2.30687261    
  0.327430397      0.377874792      -8.18181783E-02   174.725922       2.30687261    
  0.207707494      0.454816014      -8.18181783E-02   174.725922       2.30687261    
   7.11574182E-02  0.494910687       0.00000000       174.725815       2.30687261    
  0.207707494      0.454816014       0.00000000       174.725815       2.30687261    
  0.207707494      0.454816014      -8.18181783E-02   174.725815       2.30687261    
   7.11574182E-02  0.494910687      -8.18181783E-02   174.725815       2.30687261    
  -7.11574182E-02  0.494910687       0.00000000       174.725876       2.30687189    
   7.11574182E-02  0.494910687       0.00000000       174.725876       2.30687189    
   7.11574182E-02  0.494910687      -8.18181783E-02   174.725876       2.30687189    
  -7.11574182E-02  0.494910687      -8.18181783E-02   174.725876       2.30687189    
 -0.207707494      0.454816014       0.00000000       174.725876       2.30687213    
  -7.11574182E-02  0.494910687       0.00000000       174.725876       2.30687213    
  -7.11574182E-02  0.494910687      -8.18181783E-02   174.725876       2.30687213    
 -0.207707494      0.454816014      -8.18181783E-02   174.725876       2.30687213    
 -0.327430397      0.377874792       0.00000000       174.725922       2.30687261    
 -0.207707494      0.454816014       0.00000000       174.725922       2.30687261    
 -0.207707494      0.454816014      -8.18181783E-02   174.725922       2.30687261    
 -0.327430397      0.377874792      -8.18181783E-02   174.725922       2.30687261    
 -0.420626789      0.270320386       0.00000000       174.725876       2.30687261    
 -0.327430397      0.377874792       0.00000000       174.725876       2.30687261    
 -0.327430397      0.377874792      -8.18181783E-02   174.725876       2.30687261    
 -0.420626789      0.270320386      -8.18181783E-02   174.725876       2.30687261    
 -0.479746491      0.140866295       0.00000000       174.725891       2.30687213    
 -0.420626789      0.270320386       0.00000000       174.725891       2.30687213    
 -0.420626789      0.270320386      -8.18181783E-02   174.725891       2.30687213    
 -0.479746491      0.140866295      -8.18181783E-02   174.725891       2.30687213    
 -0.500000000       2.84000009E-16   0.00000000       174.725815       2.30687308    
 -0.479746491      0.140866295       0.00000000       174.725815       2.30687308    
 -0.479746491      0.140866295      -8.18181783E-02   174.725815       2.30687308    
 -0.500000000       2.84000009E-16  -8.18181783E-02   174.725815       2.30687308    
  0.479746491      0.140866295      -8.18181783E-02   174.923782       2.30298758    
  0.500000000       0.00000000      -8.18181783E-02   174.923782       2.30298758    
  0.500000000       0.00000000     -0.163636401       174.923782       2.30298758    
  0.479746491      0.140866295     -0.163636401       174.923782       2.30298758    
  0.420626789      0.270320386      -8.18181783E-02   174.923798       2.30298781    
  0.479746491      0.140866295      -8.18181783E-02   174.923798       2.30298781    
  0.479746491      0.140866295     -0.163636401       174.923798       2.30298781    
  0.420626789      0.270320386     -0.163636401       174.923798       2.30298781    
  0.327430397      0.377874792      -8.18181783E-02   174.923721       2.30298758    
  0.420626789      0.270320386      -8.18181783E-02   174.923721       2.30298758    
  0.420626789      0.270320386     -0.163636401       174.923721       2.30298758    
  0.327430397      0.377874792     -0.163636401       174.923721       2.30298758    
  0.207707494      0.454816014      -8.18181783E-02   174.923782       2.30298758    
  0.327430397      0.377874792      -8.18181783E-02   174.923782       2.30298758    
  0.327430397      0.377874792     -0.163636401       174.923782       2.30298758    
  0.207707494      0.454816014     -0.163636401       174.923782       2.30298758    
   7.11574182E-02  0.494910687      -8.18181783E-02   174.923798       2.30298758    
  0.207707494      0.454816014      -8.18181783E-02   174.923798       2.30298758    
  0.207707494      0.454816014     -0.163636401       174.923798       2.30298758    
   7.11574182E-02  0.494910687     -0.163636401       174.923798       2.30298758    
  -7.11574182E-02  0.494910687      -8.18181783E-02   174.923828       2.30298710    
   7.11574182E-02  0.494910687      -8.18181783E-02   174.923828       2.30298710    
   7.11574182E-02  0.494910687     -0.163636401       174.923828       2.30298710    
  -7.11574182E-02  0.494910687     -0.163636401       174.923828       2.30298710    
 -0.207707494      0.454816014      -8.18181783E-02   174.923874       2.30298734    
  -7.11574182E-02  0.494910687      -8.18181783E-02   174.923874       2.30298734    
  -7.11574182E-02  0.494910687     -0.163636401       174.923874       2.30298734    
 -0.207707494      0.454816014     -0.163636401       174.923874       2.30298734    
 -0.327430397      0.377874792      -8.18181783E-02   174.923859       2.30298710    
 -0.207707494      0.454816014      -8.18181783E-02   174.923859       2.30298710    
 -0.207707494      0.454816014     -0.163636401       174.923859       2.30298710    
 -0.327430397      0.377874792     -0.163636401       174.923859       2.30298710    
 -0.420626789      0.270320386      -8.18181783E-02   174.923889       2.30298758    
 -0.327430397      0.377874792      -8.18181783E-02   174.923889       2.30298758    
 -0.327430397      0.377874792     -0.163636401       174.923889       2.30298758    
 -0.420626789      0.270320386     -0.163636401       174.923889       2.30298758    
 -0.479746491      0.140866295      -8.18181783E-02   174.923874       2.30298805    
 -0.420626789      0.270320386      -8.18181783E-02   174.923874       2.30298805    
 -0.420626789      0.270320386     -0.163636401       174.923874       2.30298805    
 -0.479746491      0.140866295     -0.163636401       174.923874       2.30298805    
 -0.500000000       2.84000009E-16  -8.18181783E-02   174.923782       2.30298829    
 -0.479746491      0.140866295      -8.18181783E-02   174.923782       2.30298829    
 -0.479746491      0.140866295     -0.163636401       174.923782       2.30298829    
 -0.500000000       2.84000009E-16 -0.163636401       174.923782       2.30298829    
  0.479746491      0.140866295     -0.163636401       175.968170       2.29509902    
  0.500000000       0.00000000     -0.163636401       175.968170       2.29509902    
  0.500000000       0.00000000     -0.245454505       175.968170       2.29509902    
  0.479746491      0.140866295     -0.245454505       175.968170       2.29509902    
  0.420626789      0.270320386     -0.163636401       175.968170       2.29509926    
  0.479746491      0.140866295     -0.163636401       175.968170       2.29509926    
  0.479746491      0.140866295     -0.245454505       175.968170       2.29509926    
  0.420626789      0.270320386     -0.245454505       175.968170       2.29509926    
  0.327430397      0.377874792     -0.163636401       175.968140       2.29509926    
  0.420626789      0.270320386     -0.163636401       175.968140       2.29509926    
  0.420626789      0.270320386     -0.245454505       175.968140       2.29509926    
  0.327430397      0.377874792     -0.245454505       175.968140       2.29509926    
  0.207707494      0.454816014     -0.163636401       175.968170       2.29509926    
  0.327430397      0.377874792     -0.163636401       175.968170       2.29509926    
  0.327430397      0.377874792     -0.245454505       175.968170       2.29509926    
  0.207707494      0.454816014     -0.245454505       175.968170       2.29509926    
   7.11574182E-02  0.494910687     -0.163636401       175.968185       2.29509926    
  0.207707494      0.454816014     -0.163636401       175.968185       2.29509926    
  0.207707494      0.454816014     -0.245454505       175.968185       2.29509926    
   7.11574182E-02  0.494910687     -0.245454505       175.968185       2.29509926    
  -7.11574182E-02  0.494910687     -0.163636401       175.968140       2.29509926    
   7.11574182E-02  0.494910687     -0.163636401       175.968140       2.29509926    
   7.11574182E-02  0.494910687     -0.245454505       175.968140       2.29509926    
  -7.11574182E-02  0.494910687     -0.245454505       175.968140       2.29509926    
 -0.207707494      0.454816014     -0.163636401       175.968201       2.29509926    
  -7.11574182E-02  0.494910687     -0.163636401       175.968201       2.29509926    
  -7.11574182E-02  0.494910687     -0.245454505       175.968201       2.29509926    
 -0.207707494      0.454816014     -0.245454505       175.968201       2.29509926    
 -0.327430397      0.377874792     -0.163636401       175.968216       2.29509878    
 -0.207707494      0.454816014     -0.163636401       175.968216       2.29509878    
 -0.207707494      0.454816014     -0.245454505       175.968216       2.29509878    
 -0.327430397      0.377874792     -0.245454505       175.968216       2.29509878    
 -0.420626789      0.270320386     -0.163636401       175.968185       2.29509902    
 -0.327430397      0.377874792     -0.163636401       175.968185       2.29509902    
 -0.327430397      0.377874792     -0.245454505       175.968185       2.29509902    
 -0.420626789      0.270320386     -0.245454505       175.968185       2.29509902    
 -0.479746491      0.140866295     -0.163636401       175.968307       2.29509830    
 -0.420626789      0.270320386     -0.163636401       175.968307       2.29509830    
 -0.420626789      0.270320386     -0.245454505       175.968307       2.29509830    
 -0.479746491      0.140866295     -0.245454505       175.968307       2.29509830    
 -0.500000000       2.84000009E-16 -0.163636401       175.968231       2.29509950    
 -0.479746491      0.140866295     -0.163636401       175.968231       2.29509950    
 -0.479746491      0.140866295     -0.245454505       175.968231       2.29509950    
 -0.500000000       2.84000009E-16 -0.245454505       175.968231       2.29509950    
  0.479746491      0.140866295     -0.245454505       177.892288       2.28330588    
  0.500000000       0.00000000     -0.245454505       177.892288       2.28330588    
  0.500000000       0.00000000     -0.327272713       177.892288       2.28330588    
  0.479746491      0.140866295     -0.327272713       177.892288       2.28330588    
  0.420626789      0.270320386     -0.245454505       177.892380       2.28330564    
  0.479746491      0.140866295     -0.245454505       177.892380       2.28330564    
  0.479746491      0.140866295     -0.327272713       177.892380       2.28330564    
  0.420626789      0.270320386     -0.327272713       177.892380       2.28330564    
  0.327430397      0.377874792     -0.245454505       177.892426       2.28330588    
  0.420626789      0.270320386     -0.245454505       177.892426       2.28330588    
  0.420626789      0.270320386     -0.327272713       177.892426       2.28330588    
  0.327430397      0.377874792     -0.327272713       177.892426       2.28330588    
  0.207707494      0.454816014     -0.245454505       177.892410       2.28330517    
  0.327430397      0.377874792     -0.245454505       177.892410       2.28330517    
  0.327430397      0.377874792     -0.327272713       177.892410       2.28330517    
  0.207707494      0.454816014     -0.327272713       177.892410       2.28330517    
   7.11574182E-02  0.494910687     -0.245454505       177.892349       2.28330541    
  0.207707494      0.454816014     -0.245454505       177.892349       2.28330541    
  0.207707494      0.454816014     -0.327272713       177.892349       2.28330541    
   7.11574182E-02  0.494910687     -0.327272713       177.892349       2.28330541    
  -7.11574182E-02  0.494910687     -0.245454505       177.892426       2.28330517    
   7.11574182E-02  0.494910687     -0.245454505       177.892426       2.28330517    
   7.11574182E-02  0.494910687     -0.327272713       177.892426       2.28330517    
  -7.11574182E-02  0.494910687     -0.327272713       177.892426       2.28330517    
 -0.207707494      0.454816014     -0.245454505       177.892441       2.28330541    
  -7.11574182E-02  0.494910687     -0.245454505       177.892441       2.28330541    
  -7.11574182E-02  0.494910687     -0.327272713       177.892441       2.28330541    
 -0.207707494      0.454816014     -0.327272713       177.892441       2.28330541    
 -0.327430397      0.377874792     -0.245454505       177.892380       2.28330588    
 -0.207707494      0.454816014     -0.245454505       177.892380       2.28330588    
 -0.207707494      0.454816014     -0.327272713       177.892380       2.28330588    
 -0.327430397      0.377874792     -0.327272713       177.892380       2.28330588    
 -0.420626789      0.270320386     -0.245454505       177.892548       2.28330564    
 -0.327430397      0.377874792     -0.245454505       177.892548       2.28330564    
 -0.327430397      0.377874792     -0.327272713       177.892548       2.28330564    
 -0.420626789      0.270320386     -0.327272713       177.892548       2.28330564    
 -0.479746491      0.140866295     -0.245454505       177.892456       2.28330564    
 -0.420626789      0.270320386     -0.245454505       177.892456       2.28330564    
 -0.420626789      0.270320386     -0.327272713       177.892456       2.28330564    
 -0.479746491      0.140866295     -0.327272713       177.892456       2.28330564    
 -0.500000000       2.84000009E-16 -0.245454505       177.892334       2.28330564    
 -0.479746491      0.140866295     -0.245454505       177.892334       2.28330564    
 -0.479746491      0.140866295     -0.327272713       177.892334       2.28330564    
 -0.500000000       2.84000009E-16 -0.327272713       177.892334       2.28330564    
  0.479746491      0.140866295     -0.327272713       180.899826       2.26707554    
  0.500000000       0.00000000     -0.327272713       180.899826       2.26707554    
  0.500000000       0.00000000     -0.409090906       180.899826       2.26707554    
  0.479746491      0.140866295     -0.409090906       180.899826       2.26707554    
  0.420626789      0.270320386     -0.327272713       180.900024       2.26707530    
  0.479746491      0.140866295     -0.327272713       180.900024       2.26707530    
  0.479746491      0.140866295     -0.409090906       180.900024       2.26707530    
  0.420626789      0.270320386     -0.409090906       180.900024       2.26707530    
  0.327430397      0.377874792     -0.327272713       180.899902       2.26707554    
  0.420626789      0.270320386     -0.327272713       180.899902       2.26707554    
  0.420626789      0.270320386     -0.409090906       180.899902       2.26707554    
  0.327430397      0.377874792     -0.409090906       180.899902       2.26707554    
  0.207707494      0.454816014     -0.327272713       180.899918       2.26707554    
  0.327430397      0.377874792     -0.327272713       180.899918       2.26707554    
  0.327430397      0.377874792     -0.409090906       180.899918       2.26707554    
  0.207707494      0.454816014     -0.409090906       180.899918       2.26707554    
   7.11574182E-02  0.494910687     -0.327272713       180.900024       2.26707506    
  0.207707494      0.454816014     -0.327272713       180.900024       2.26707506    
  0.207707494      0.454816014     -0.409090906       180.900024       2.26707506    
   7.11574182E-02  0.494910687     -0.409090906       180.900024       2.26707506    
  -7.11574182E-02  0.494910687     -0.327272713       180.899902       2.26707530    
   7.11574182E-02  0.494910687     -0.327272713       180.899902       2.26707530    
   7.11574182E-02  0.494910687     -0.409090906       180.899902       2.26707530    
  -7.11574182E-02  0.494910687     -0.409090906       180.899902       2.26707530    
 -0.207707494      0.454816014     -0.327272713       180.899963       2.26707530    
  -7.11574182E-02  0.494910687     -0.327272713       180.899963       2.26707530    
  -7.11574182E-02  0.494910687     -0.409090906       180.899963       2.26707530    
 -0.207707494      0.454816014     -0.409090906       180.899963       2.26707530    
 -0.327430397      0.377874792     -0.327272713       180.899902       2.26707530    
 -0.207707494      0.454816014     -0.327272713       180.899902       2.26707530    
 -0.207707494      0.454816014     -0.409090906       180.899902       2.26707530    
 -0.327430397      0.377874792     -0.409090906       180.899902       2.26707530    
 -0.420626789      0.270320386     -0.327272713       180.899887       2.26707554    
 -0.327430397      0.377874792     -0.327272713       180.899887       2.26707554    
 -0.327430397      0.377874792     -0.409090906       180.899887       2.26707554    
 -0.420626789      0.270320386     -0.409090906       180.899887       2.26707554    
 -0.479746491      0.140866295     -0.327272713       180.899979       2.26707482    
 -0.420626789      0.270320386     -0.327272713       180.899979       2.26707482    
 -0.420626789      0.270320386     -0.409090906       180.899979       2.26707482    
 -0.479746491      0.140866295     -0.409090906       180.899979       2.26707482    
 -0.500000000       2.84000009E-16 -0.327272713       180.899933       2.26707506    
 -0.479746491      0.140866295     -0.327272713       180.899933       2.26707506    
 -0.479746491      0.140866295     -0.409090906       180.899933       2.26707506    
 -0.500000000       2.84000009E-16 -0.409090906       180.899933       2.26707506    
  0.479746491      0.140866295     -0.409090906       185.230850       2.24603963    
  0.500000000       0.00000000     -0.409090906       185.230850       2.24603963    
  0.500000000       0.00000000     -0.490909100       185.230850       2.24603963    
  0.479746491      0.140866295     -0.490909100       185.230850       2.24603963    
  0.420626789      0.270320386     -0.409090906       185.230850       2.24603939    
  0.479746491      0.140866295     -0.409090906       185.230850       2.24603939    
  0.479746491      0.140866295     -0.490909100       185.230850       2.24603939    
  0.420626789      0.270320386     -0.490909100       185.230850       2.24603939    
  0.327430397      0.377874792     -0.409090906       185.230957       2.24603939    
  0.420626789      0.270320386     -0.409090906       185.230957       2.24603939    
  0.420626789      0.270320386     -0.490909100       185.230957       2.24603939    
  0.327430397      0.377874792     -0.490909100       185.230957       2.24603939    
  0.207707494      0.454816014     -0.409090906       185.231064       2.24603939    
  0.327430397      0.377874792     -0.409090906       185.231064       2.24603939    
  0.327430397      0.377874792     -0.490909100       185.231064       2.24603939    
  0.207707494      0.454816014     -0.490909100       185.231064       2.24603939    
   7.11574182E-02  0.494910687     -0.409090906       185.230927       2.24603915    
  0.207707494      0.454816014     -0.409090906       185.230927       2.24603915    
  0.207707494      0.454816014     -0.490909100       185.230927       2.24603915    
   7.11574182E-02  0.494910687     -0.490909100       185.230927       2.24603915    
  -7.11574182E-02  0.494910687     -0.409090906       185.230942       2.24603915    
   7.11574182E-02  0.494910687     -0.409090906       185.230942       2.24603915    
   7.11574182E-02  0.494910687     -0.490909100       185.230942       2.24603915    
  -7.11574182E-02  0.494910687     -0.490909100       185.230942       2.24603915    
 -0.207707494      0.454816014     -0.409090906       185.230911       2.24603963    
  -7.11574182E-02  0.494910687     -0.409090906       185.230911       2.24603963    
  -7.11574182E-02  0.494910687     -0.490909100       185.230911       2.24603963    
 -0.207707494      0.454816014     -0.490909100       185.230911       2.24603963    
 -0.327430397      0.377874792     -0.409090906       185.230972       2.24603939    
 -0.207707494      0.454816014     -0.409090906       185.230972       2.24603939    
 -0.207707494      0.454816014     -0.490909100       185.230972       2.24603939    
 -0.327430397      0.377874792     -0.490909100       185.230972       2.24603939    
 -0.420626789      0.270320386     -0.409090906       185.230942       2.24603939    
 -0.327430397      0.377874792     -0.409090906       185.230942       2.24603939    
 -0.327430397      0.377874792     -0.490909100       185.230942       2.24603939    
 -0.420626789      0.270320386     -0.490909100       185.230942       2.24603939    
 -0.479746491      0.140866295     -0.409090906       185.230911       2.24603939    
 -0.420626789      0.270320386     -0.409090906       185.230911       2.24603939    
 -0.420626789      0.270320386     -0.490909100       185.230911       2.24603939    
 -0.479746491      0.140866295     -0.490909100       185.230911       2.24603939    
 -0.500000000       2.84000009E-16 -0.409090906       185.231049       2.24603939    
 -0.479746491      0.140866295     -0.409090906       185.231049       2.24603939    
 -0.479746491      0.140866295     -0.490909100       185.231049       2.24603939    
 -0.500000000       2.84000009E-16 -0.490909100       185.231049       2.24603939    
  0.479746491      0.140866295     -0.490909100       191.510757       2.21870589    
  0.500000000       0.00000000     -0.490909100       191.510757       2.21870589    
  0.500000000       0.00000000     -0.572727323       191.510757       2.21870589    
  0.479746491      0.140866295     -0.572727323       191.510757       2.21870589    
  0.420626789      0.270320386     -0.490909100       191.510788       2.21870637    
  0.479746491      0.140866295     -0.490909100       191.510788       2.21870637    
  0.479746491      0.140866295     -0.572727323       191.510788       2.21870637    
  0.420626789      0.270320386     -0.572727323       191.510788       2.21870637    
  0.327430397      0.377874792     -0.490909100       191.510757       2.21870589    
  0.420626789      0.270320386     -0.490909100       191.510757       2.21870589    
  0.420626789      0.270320386     -0.572727323       191.510757       2.21870589    
  0.327430397      0.377874792     -0.572727323       191.510757       2.21870589    
  0.207707494      0.454816014     -0.490909100       191.510773       2.21870661    
  0.327430397      0.377874792     -0.490909100       191.510773       2.21870661    
  0.327430397      0.377874792     -0.572727323       191.510773       2.21870661    
  0.207707494      0.454816014     -0.572727323       191.510773       2.21870661    
   7.11574182E-02  0.494910687     -0.490909100       191.510696       2.21870637    
  0.207707494      0.454816014     -0.490909100       191.510696       2.21870637    
  0.207707494      0.454816014     -0.572727323       191.510696       2.21870637    
   7.11574182E-02  0.494910687     -0.572727323       191.510696       2.21870637    
  -7.11574182E-02  0.494910687     -0.490909100       191.510742       2.21870637    
   7.11574182E-02  0.494910687     -0.490909100       191.510742       2.21870637    
   7.11574182E-02  0.494910687     -0.572727323       191.510742       2.21870637    
  -7.11574182E-02  0.494910687     -0.572727323       191.510742       2.21870637    
 -0.207707494      0.454816014     -0.490909100       191.510956       2.21870542    
  -7.11574182E-02  0.494910687     -0.490909100       191.510956       2.21870542    
  -7.11574182E-02  0.494910687     -0.572727323       191.510956       2.21870542    
 -0.207707494      0.454816014     -0.572727323       191.510956       2.21870542    
 -0.327430397      0.377874792     -0.490909100       191.510757       2.21870613    
 -0.207707494      0.454816014     -0.490909100       191.510757       2.21870613    
 -0.207707494      0.454816014     -0.572727323       191.510757       2.21870613    
 -0.327430397      0.377874792     -0.572727323       191.510757       2.21870613    
 -0.420626789      0.270320386     -0.490909100       191.510742       2.21870589    
 -0.327430397      0.377874792     -0.490909100       191.510742       2.21870589    
 -0.327430397      0.377874792     -0.572727323       191.510742       2.21870589    
 -0.420626789      0.270320386     -0.572727323       191.510742       2.21870589    
 -0.479746491      0.140866295     -0.490909100       191.510803       2.21870613    
 -0.420626789      0.270320386     -0.490909100       191.510803       2.21870613    
 -0.420626789      0.270320386     -0.572727323       191.510803       2.21870613    
 -0.479746491      0.140866295     -0.572727323       191.510803       2.21870613    
 -0.500000000       2.84000009E-16 -0.490909100       191.510727       2.21870589    
 -0.479746491      0.140866295     -0.490909100       191.510727       2.21870589    
 -0.479746491      0.140866295     -0.572727323       191.510727       2.21870589    
 -0.500000000       2.84000009E-16 -0.572727323       191.510727       2.21870589    
  0.479746491      0.140866295     -0.572727323       200.553528       2.18395591    
  0.500000000       0.00000000     -0.572727323       200.553528       2.18395591    
  0.500000000       0.00000000     -0.654545426       200.553528       2.18395591    
  0.479746491      0.140866295     -0.654545426       200.553528       2.18395591    
  0.420626789      0.270320386     -0.572727323       200.553406       2.18395567    
  0.479746491      0.140866295     -0.572727323       200.553406       2.18395567    
  0.479746491      0.140866295     -0.654545426       200.553406       2.18395567    
  0.420626789      0.270320386     -0.654545426       200.553406       2.18395567    
  0.327430397      0.377874792     -0.572727323       200.553543       2.18395567    
  0.420626789      0.270320386     -0.572727323       200.553543       2.18395567    
  0.420626789      0.270320386     -0.654545426       200.553543       2.18395567    
  0.327430397      0.377874792     -0.654545426       200.553543       2.18395567    
  0.207707494      0.454816014     -0.572727323       200.553558       2.18395543    
  0.327430397      0.377874792     -0.572727323       200.553558       2.18395543    
  0.327430397      0.377874792     -0.654545426       200.553558       2.18395543    
  0.207707494      0.454816014     -0.654545426       200.553558       2.18395543    
   7.11574182E-02  0.494910687     -0.572727323       200.553558       2.18395519    
  0.207707494      0.454816014     -0.572727323       200.553558       2.18395519    
  0.207707494      0.454816014     -0.654545426       200.553558       2.18395519    
   7.11574182E-02  0.494910687     -0.654545426       200.553558       2.18395519    
  -7.11574182E-02  0.494910687     -0.572727323       200.553665       2.18395495    
   7.11574182E-02  0.494910687     -0.572727323       200.553665       2.18395495    
   7.11574182E-02  0.494910687     -0.654545426       200.553665       2.18395495    
  -7.11574182E-02  0.494910687     -0.654545426       200.553665       2.18395495    
 -0.207707494      0.454816014     -0.572727323       200.553635       2.18395448    
  -7.11574182E-02  0.494910687     -0.572727323       200.553635       2.18395448    
  -7.11574182E-02  0.494910687     -0.654545426       200.553635       2.18395448    
 -0.207707494      0.454816014     -0.654545426       200.553635       2.18395448    
 -0.327430397      0.377874792     -0.572727323       200.553619       2.18395519    
 -0.207707494      0.454816014     -0.572727323       200.553619       2.18395519    
 -0.207707494      0.454816014     -0.654545426       200.553619       2.18395519    
 -0.327430397      0.377874792     -0.654545426       200.553619       2.18395519    
 -0.420626789      0.270320386     -0.572727323       200.553467       2.18395567    
 -0.327430397      0.377874792     -0.572727323       200.553467       2.18395567    
 -0.327430397      0.377874792     -0.654545426       200.553467       2.18395567    
 -0.420626789      0.270320386     -0.654545426       200.553467       2.18395567    
 -0.479746491      0.140866295     -0.572727323       200.553543       2.18395543    
 -0.420626789      0.270320386     -0.572727323       200.553543       2.18395543    
 -0.420626789      0.270320386     -0.654545426       200.553543       2.18395543    