 VARIABLES="X" "Y" "Z" "abs(p) (Pa)" "angle(p) (rad)"
ZONE N=    528,E =     462, F=FEPOINT, ET=QUADRILATERAL
  0.479746491      0.140866295       0.00000000       2087.90332       1.90949762    
  0.500000000       0.00000000       0.00000000       2087.90332       1.90949762    
  0.500000000       0.00000000      -8.18181783E-02   2087.90332       1.90949762    
  0.479746491      0.140866295      -8.18181783E-02   2087.90332       1.90949762    
  0.420626789      0.270320386       0.00000000       1894.33984       1.91559339    
  0.479746491      0.140866295       0.00000000       1894.33984       1.91559339    
  0.479746491      0.140866295      -8.18181783E-02   1894.33984       1.91559339    
  0.420626789      0.270320386      -8.18181783E-02   1894.33984       1.91559339    
  0.327430397      0.377874792       0.00000000       1524.73474       1.93779039    
  0.420626789      0.270320386       0.00000000       1524.73474       1.93779039    
  0.420626789      0.270320386      -8.18181783E-02   1524.73474       1.93779039    
  0.327430397      0.377874792      -8.18181783E-02   1524.73474       1.93779039    
  0.207707494      0.454816014       0.00000000       1016.04657       2.01593685    
  0.327430397      0.377874792       0.00000000       1016.04657       2.01593685    
  0.327430397      0.377874792      -8.18181783E-02   1016.04657       2.01593685    
  0.207707494      0.454816014      -8.18181783E-02   1016.04657       2.01593685    
   7.11574182E-02  0.494910687       0.00000000       454.427124       2.40880871    
  0.207707494      0.454816014       0.00000000       454.427124       2.40880871    
  0.207707494      0.454816014      -8.18181783E-02   454.427124       2.40880871    
   7.11574182E-02  0.494910687      -8.18181783E-02   454.427124       2.40880871    
  -7.11574182E-02  0.494910687       0.00000000       454.149384      -2.20594263    
   7.11574182E-02  0.494910687       0.00000000       454.149384      -2.20594263    
   7.11574182E-02  0.494910687      -8.18181783E-02   454.149384      -2.20594263    
  -7.11574182E-02  0.494910687      -8.18181783E-02   454.149384      -2.20594263    
 -0.207707494      0.454816014       0.00000000       1063.31982      -1.80140531    
  -7.11574182E-02  0.494910687       0.00000000       1063.31982      -1.80140531    
  -7.11574182E-02  0.494910687      -8.18181783E-02   1063.31982      -1.80140531    
 -0.207707494      0.454816014      -8.18181783E-02   1063.31982      -1.80140531    
 -0.327430397      0.377874792       0.00000000       1667.98303      -1.72469676    
 -0.207707494      0.454816014       0.00000000       1667.98303      -1.72469676    
 -0.207707494      0.454816014      -8.18181783E-02   1667.98303      -1.72469676    
 -0.327430397      0.377874792      -8.18181783E-02   1667.98303      -1.72469676    
 -0.420626789      0.270320386       0.00000000       2174.33203      -1.70594001    
 -0.327430397      0.377874792       0.00000000       2174.33203      -1.70594001    
 -0.327430397      0.377874792      -8.18181783E-02   2174.33203      -1.70594001    
 -0.420626789      0.270320386      -8.18181783E-02   2174.33203      -1.70594001    
 -0.479746491      0.140866295       0.00000000       2536.35327      -1.70302927    
 -0.420626789      0.270320386       0.00000000       2536.35327      -1.70302927    
 -0.420626789      0.270320386      -8.18181783E-02   2536.35327      -1.70302927    
 -0.479746491      0.140866295      -8.18181783E-02   2536.35327      -1.70302927    
 -0.500000000       2.84000009E-16   0.00000000       2724.68823      -1.70363522    
 -0.479746491      0.140866295       0.00000000       2724.68823      -1.70363522    
 -0.479746491      0.140866295      -8.18181783E-02   2724.68823      -1.70363522    
 -0.500000000       2.84000009E-16  -8.18181783E-02   2724.68823      -1.70363522    
  0.479746491      0.140866295      -8.18181783E-02   2056.84131       1.90971982    
  0.500000000       0.00000000      -8.18181783E-02   2056.84131       1.90971982    
  0.500000000       0.00000000     -0.163636401       2056.84131       1.90971982    
  0.479746491      0.140866295     -0.163636401       2056.84131       1.90971982    
  0.420626789      0.270320386      -8.18181783E-02   1866.15295       1.91580462    
  0.479746491      0.140866295      -8.18181783E-02   1866.15295       1.91580462    
  0.479746491      0.140866295     -0.163636401       1866.15295       1.91580462    
  0.420626789      0.270320386     -0.163636401       1866.15295       1.91580462    
  0.327430397      0.377874792      -8.18181783E-02   1502.03674       1.93798292    
  0.420626789      0.270320386      -8.18181783E-02   1502.03674       1.93798292    
  0.420626789      0.270320386     -0.163636401       1502.03674       1.93798292    
  0.327430397      0.377874792     -0.163636401       1502.03674       1.93798292    
  0.207707494      0.454816014      -8.18181783E-02   1000.90436       2.01611400    
  0.327430397      0.377874792      -8.18181783E-02   1000.90436       2.01611400    
  0.327430397      0.377874792     -0.163636401       1000.90436       2.01611400    
  0.207707494      0.454816014     -0.163636401       1000.90436       2.01611400    
   7.11574182E-02  0.494910687      -8.18181783E-02   447.647705       2.40904832    
  0.207707494      0.454816014      -8.18181783E-02   447.647705       2.40904832    
  0.207707494      0.454816014     -0.163636401       447.647705       2.40904832    
   7.11574182E-02  0.494910687     -0.163636401       447.647705       2.40904832    
  -7.11574182E-02  0.494910687      -8.18181783E-02   447.479248      -2.20585632    
   7.11574182E-02  0.494910687      -8.18181783E-02   447.479248      -2.20585632    
   7.11574182E-02  0.494910687     -0.163636401       447.479248      -2.20585632    
  -7.11574182E-02  0.494910687     -0.163636401       447.479248      -2.20585632    
 -0.207707494      0.454816014      -8.18181783E-02   1047.60120      -1.80142832    
  -7.11574182E-02  0.494910687      -8.18181783E-02   1047.60120      -1.80142832    
  -7.11574182E-02  0.494910687     -0.163636401       1047.60120      -1.80142832    
 -0.207707494      0.454816014     -0.163636401       1047.60120      -1.80142832    
 -0.327430397      0.377874792      -8.18181783E-02   1643.27148      -1.72476518    
 -0.207707494      0.454816014      -8.18181783E-02   1643.27148      -1.72476518    
 -0.207707494      0.454816014     -0.163636401       1643.27148      -1.72476518    
 -0.327430397      0.377874792     -0.163636401       1643.27148      -1.72476518    
 -0.420626789      0.270320386      -8.18181783E-02   2142.08325      -1.70604408    
 -0.327430397      0.377874792      -8.18181783E-02   2142.08325      -1.70604408    
 -0.327430397      0.377874792     -0.163636401       2142.08325      -1.70604408    
 -0.420626789      0.270320386     -0.163636401       2142.08325      -1.70604408    
 -0.479746491      0.140866295      -8.18181783E-02   2498.70874      -1.70315874    
 -0.420626789      0.270320386      -8.18181783E-02   2498.70874      -1.70315874    
 -0.420626789      0.270320386     -0.163636401       2498.70874      -1.70315874    
 -0.479746491      0.140866295     -0.163636401       2498.70874      -1.70315874    
 -0.500000000       2.84000009E-16  -8.18181783E-02   2684.23901      -1.70377815    
 -0.479746491      0.140866295      -8.18181783E-02   2684.23901      -1.70377815    
 -0.479746491      0.140866295     -0.163636401       2684.23901      -1.70377815    
 -0.500000000       2.84000009E-16 -0.163636401       2684.23901      -1.70377815    
  0.479746491      0.140866295     -0.163636401       2022.41931       1.91058815    
  0.500000000       0.00000000     -0.163636401       2022.41931       1.91058815    
  0.500000000       0.00000000     -0.245454505       2022.41931       1.91058815    
  0.479746491      0.140866295     -0.245454505       2022.41931       1.91058815    
  0.420626789      0.270320386     -0.163636401       1834.87146       1.91673970    
  0.479746491      0.140866295     -0.163636401       1834.87146       1.91673970    
  0.479746491      0.140866295     -0.245454505       1834.87146       1.91673970    
  0.420626789      0.270320386     -0.245454505       1834.87146       1.91673970    
  0.327430397      0.377874792     -0.163636401       1476.77014       1.93910015    
  0.420626789      0.270320386     -0.163636401       1476.77014       1.93910015    
  0.420626789      0.270320386     -0.245454505       1476.77014       1.93910015    
  0.327430397      0.377874792     -0.245454505       1476.77014       1.93910015    
  0.207707494      0.454816014     -0.163636401       983.982239       2.01773572    
  0.327430397      0.377874792     -0.163636401       983.982239       2.01773572    
  0.327430397      0.377874792     -0.245454505       983.982239       2.01773572    
  0.207707494      0.454816014     -0.245454505       983.982239       2.01773572    
   7.11574182E-02  0.494910687     -0.163636401       440.408783       2.41263080    
  0.207707494      0.454816014     -0.163636401       440.408783       2.41263080    
  0.207707494      0.454816014     -0.245454505       440.408783       2.41263080    
   7.11574182E-02  0.494910687     -0.245454505       440.408783       2.41263080    
  -7.11574182E-02  0.494910687     -0.163636401       441.623840      -2.20633936    
   7.11574182E-02  0.494910687     -0.163636401       441.623840      -2.20633936    
   7.11574182E-02  0.494910687     -0.245454505       441.623840      -2.20633936    
  -7.11574182E-02  0.494910687     -0.245454505       441.623840      -2.20633936    
 -0.207707494      0.454816014     -0.163636401       1031.65015      -1.80214226    
  -7.11574182E-02  0.494910687     -0.163636401       1031.65015      -1.80214226    
  -7.11574182E-02  0.494910687     -0.245454505       1031.65015      -1.80214226    
 -0.207707494      0.454816014     -0.245454505       1031.65015      -1.80214226    
 -0.327430397      0.377874792     -0.163636401       1617.44812      -1.72526395    
 -0.207707494      0.454816014     -0.163636401       1617.44812      -1.72526395    
 -0.207707494      0.454816014     -0.245454505       1617.44812      -1.72526395    
 -0.327430397      0.377874792     -0.245454505       1617.44812      -1.72526395    
 -0.420626789      0.270320386     -0.163636401       2108.02417      -1.70643508    
 -0.327430397      0.377874792     -0.163636401       2108.02417      -1.70643508    
 -0.327430397      0.377874792     -0.245454505       2108.02417      -1.70643508    
 -0.420626789      0.270320386     -0.245454505       2108.02417      -1.70643508    
 -0.479746491      0.140866295     -0.163636401       2458.76953      -1.70349765    
 -0.420626789      0.270320386     -0.163636401       2458.76953      -1.70349765    
 -0.420626789      0.270320386     -0.245454505       2458.76953      -1.70349765    
 -0.479746491      0.140866295     -0.245454505       2458.76953      -1.70349765    
 -0.500000000       2.84000009E-16 -0.163636401       2641.23608      -1.70409572    
 -0.479746491      0.140866295     -0.163636401       2641.23608      -1.70409572    
 -0.479746491      0.140866295     -0.245454505       2641.23608      -1.70409572    
 -0.500000000       2.84000009E-16 -0.245454505       2641.23608      -1.70409572    
  0.479746491      0.140866295     -0.245454505       1986.55164       1.91201842    
  0.500000000       0.00000000     -0.245454505       1986.55164       1.91201842    
  0.500000000       0.00000000     -0.327272713       1986.55164       1.91201842    
  0.479746491      0.140866295     -0.327272713       1986.55164       1.91201842    
  0.420626789      0.270320386     -0.245454505       1802.25049       1.91828620    
  0.479746491      0.140866295     -0.245454505       1802.25049       1.91828620    
  0.479746491      0.140866295     -0.327272713       1802.25049       1.91828620    
  0.420626789      0.270320386     -0.327272713       1802.25049       1.91828620    
  0.327430397      0.377874792     -0.245454505       1450.37244       1.94096172    
  0.420626789      0.270320386     -0.245454505       1450.37244       1.94096172    
  0.420626789      0.270320386     -0.327272713       1450.37244       1.94096172    
  0.327430397      0.377874792     -0.327272713       1450.37244       1.94096172    
  0.207707494      0.454816014     -0.245454505       966.262573       2.02046013    
  0.327430397      0.377874792     -0.245454505       966.262573       2.02046013    
  0.327430397      0.377874792     -0.327272713       966.262573       2.02046013    
  0.207707494      0.454816014     -0.327272713       966.262573       2.02046013    
   7.11574182E-02  0.494910687     -0.245454505       433.046417       2.41866016    
  0.207707494      0.454816014     -0.245454505       433.046417       2.41866016    
  0.207707494      0.454816014     -0.327272713       433.046417       2.41866016    
   7.11574182E-02  0.494910687     -0.327272713       433.046417       2.41866016    
  -7.11574182E-02  0.494910687     -0.245454505       436.500397      -2.20719838    
   7.11574182E-02  0.494910687     -0.245454505       436.500397      -2.20719838    
   7.11574182E-02  0.494910687     -0.327272713       436.500397      -2.20719838    
  -7.11574182E-02  0.494910687     -0.327272713       436.500397      -2.20719838    
 -0.207707494      0.454816014     -0.245454505       1015.96777      -1.80335701    
  -7.11574182E-02  0.494910687     -0.245454505       1015.96777      -1.80335701    
  -7.11574182E-02  0.494910687     -0.327272713       1015.96777      -1.80335701    
 -0.207707494      0.454816014     -0.327272713       1015.96777      -1.80335701    
 -0.327430397      0.377874792     -0.245454505       1591.53296      -1.72610140    
 -0.207707494      0.454816014     -0.245454505       1591.53296      -1.72610140    
 -0.207707494      0.454816014     -0.327272713       1591.53296      -1.72610140    
 -0.327430397      0.377874792     -0.327272713       1591.53296      -1.72610140    
 -0.420626789      0.270320386     -0.245454505       2073.59302      -1.70708084    
 -0.327430397      0.377874792     -0.245454505       2073.59302      -1.70708084    
 -0.327430397      0.377874792     -0.327272713       2073.59302      -1.70708084    
 -0.420626789      0.270320386     -0.327272713       2073.59302      -1.70708084    
 -0.479746491      0.140866295     -0.245454505       2418.25854      -1.70404887    
 -0.420626789      0.270320386     -0.245454505       2418.25854      -1.70404887    
 -0.420626789      0.270320386     -0.327272713       2418.25854      -1.70404887    
 -0.479746491      0.140866295     -0.327272713       2418.25854      -1.70404887    
 -0.500000000       2.84000009E-16 -0.245454505       2597.56616      -1.70460725    
 -0.479746491      0.140866295     -0.245454505       2597.56616      -1.70460725    
 -0.479746491      0.140866295     -0.327272713       2597.56616      -1.70460725    
 -0.500000000       2.84000009E-16 -0.327272713       2597.56616      -1.70460725    
  0.479746491      0.140866295     -0.327272713       1948.60168       1.91412246    
  0.500000000       0.00000000     -0.327272713       1948.60168       1.91412246    
  0.500000000       0.00000000     -0.409090906       1948.60168       1.91412246    
  0.479746491      0.140866295     -0.409090906       1948.60168       1.91412246    
  0.420626789      0.270320386     -0.327272713       1767.70935       1.92057025    
  0.479746491      0.140866295     -0.327272713       1767.70935       1.92057025    
  0.479746491      0.140866295     -0.409090906       1767.70935       1.92057025    
  0.420626789      0.270320386     -0.409090906       1767.70935       1.92057025    
  0.327430397      0.377874792     -0.327272713       1422.37610       1.94373083    
  0.420626789      0.270320386     -0.327272713       1422.37610       1.94373083    
  0.420626789      0.270320386     -0.409090906       1422.37610       1.94373083    
  0.327430397      0.377874792     -0.409090906       1422.37610       1.94373083    
  0.207707494      0.454816014     -0.327272713       947.441772       2.02454281    
  0.327430397      0.377874792     -0.327272713       947.441772       2.02454281    
  0.327430397      0.377874792     -0.409090906       947.441772       2.02454281    
  0.207707494      0.454816014     -0.409090906       947.441772       2.02454281    
   7.11574182E-02  0.494910687     -0.327272713       425.500793       2.42768216    
  0.207707494      0.454816014     -0.327272713       425.500793       2.42768216    
  0.207707494      0.454816014     -0.409090906       425.500793       2.42768216    
   7.11574182E-02  0.494910687     -0.409090906       425.500793       2.42768216    
  -7.11574182E-02  0.494910687     -0.327272713       432.146912      -2.20858502    
   7.11574182E-02  0.494910687     -0.327272713       432.146912      -2.20858502    
   7.11574182E-02  0.494910687     -0.409090906       432.146912      -2.20858502    
  -7.11574182E-02  0.494910687     -0.409090906       432.146912      -2.20858502    
 -0.207707494      0.454816014     -0.327272713       1000.37872      -1.80520904    
  -7.11574182E-02  0.494910687     -0.327272713       1000.37872      -1.80520904    
  -7.11574182E-02  0.494910687     -0.409090906       1000.37872      -1.80520904    
 -0.207707494      0.454816014     -0.409090906       1000.37872      -1.80520904    
 -0.327430397      0.377874792     -0.327272713       1565.16797      -1.72736347    
 -0.207707494      0.454816014     -0.327272713       1565.16797      -1.72736347    
 -0.207707494      0.454816014     -0.409090906       1565.16797      -1.72736347    
 -0.327430397      0.377874792     -0.409090906       1565.16797      -1.72736347    
 -0.420626789      0.270320386     -0.327272713       2038.28516      -1.70803988    
 -0.327430397      0.377874792     -0.327272713       2038.28516      -1.70803988    
 -0.327430397      0.377874792     -0.409090906       2038.28516      -1.70803988    
 -0.420626789      0.270320386     -0.409090906       2038.28516      -1.70803988    
 -0.479746491      0.140866295     -0.327272713       2376.57056      -1.70485628    
 -0.420626789      0.270320386     -0.327272713       2376.57056      -1.70485628    
 -0.420626789      0.270320386     -0.409090906       2376.57056      -1.70485628    
 -0.479746491      0.140866295     -0.409090906       2376.57056      -1.70485628    
 -0.500000000       2.84000009E-16 -0.327272713       2552.55981      -1.70535028    
 -0.479746491      0.140866295     -0.327272713       2552.55981      -1.70535028    
 -0.479746491      0.140866295     -0.409090906       2552.55981      -1.70535028    
 -0.500000000       2.84000009E-16 -0.409090906       2552.55981      -1.70535028    
  0.479746491      0.140866295     -0.409090906       1907.35913       1.91707802    
  0.500000000       0.00000000     -0.409090906       1907.35913       1.91707802    
  0.500000000       0.00000000     -0.490909100       1907.35913       1.91707802    
  0.479746491      0.140866295     -0.490909100       1907.35913       1.91707802    
  0.420626789      0.270320386     -0.409090906       1730.14600       1.92379272    
  0.479746491      0.140866295     -0.409090906       1730.14600       1.92379272    
  0.479746491      0.140866295     -0.490909100       1730.14600       1.92379272    
  0.420626789      0.270320386     -0.490909100       1730.14600       1.92379272    
  0.327430397      0.377874792     -0.409090906       1391.88501       1.94766855    
  0.420626789      0.270320386     -0.409090906       1391.88501       1.94766855    
  0.420626789      0.270320386     -0.490909100       1391.88501       1.94766855    
  0.327430397      0.377874792     -0.490909100       1391.88501       1.94766855    
  0.207707494      0.454816014     -0.409090906       926.925842       2.03039932    
  0.327430397      0.377874792     -0.409090906       926.925842       2.03039932    
  0.327430397      0.377874792     -0.490909100       926.925842       2.03039932    
  0.207707494      0.454816014     -0.490909100       926.925842       2.03039932    
   7.11574182E-02  0.494910687     -0.409090906       417.619934       2.44059515    
  0.207707494      0.454816014     -0.409090906       417.619934       2.44059515    
  0.207707494      0.454816014     -0.490909100       417.619934       2.44059515    
   7.11574182E-02  0.494910687     -0.490909100       417.619934       2.44059515    
  -7.11574182E-02  0.494910687     -0.409090906       428.611359      -2.21067309    
   7.11574182E-02  0.494910687     -0.409090906       428.611359      -2.21067309    
   7.11574182E-02  0.494910687     -0.490909100       428.611359      -2.21067309    
  -7.11574182E-02  0.494910687     -0.490909100       428.611359      -2.21067309    
 -0.207707494      0.454816014     -0.409090906       984.555664      -1.80789280    
  -7.11574182E-02  0.494910687     -0.409090906       984.555664      -1.80789280    
  -7.11574182E-02  0.494910687     -0.490909100       984.555664      -1.80789280    
 -0.207707494      0.454816014     -0.490909100       984.555664      -1.80789280    
 -0.327430397      0.377874792     -0.409090906       1537.68481      -1.72917211    
 -0.207707494      0.454816014     -0.409090906       1537.68481      -1.72917211    
 -0.207707494      0.454816014     -0.490909100       1537.68481      -1.72917211    
 -0.327430397      0.377874792     -0.490909100       1537.68481      -1.72917211    
 -0.420626789      0.270320386     -0.409090906       2001.15527      -1.70939207    
 -0.327430397      0.377874792     -0.409090906       2001.15527      -1.70939207    
 -0.327430397      0.377874792     -0.490909100       2001.15527      -1.70939207    
 -0.420626789      0.270320386     -0.490909100       2001.15527      -1.70939207    
 -0.479746491      0.140866295     -0.409090906       2332.56616      -1.70597577    
 -0.420626789      0.270320386     -0.409090906       2332.56616      -1.70597577    
 -0.420626789      0.270320386     -0.490909100       2332.56616      -1.70597577    
 -0.479746491      0.140866295     -0.490909100       2332.56616      -1.70597577    
 -0.500000000       2.84000009E-16 -0.409090906       2504.98120      -1.70637035    
 -0.479746491      0.140866295     -0.409090906       2504.98120      -1.70637035    
 -0.479746491      0.140866295     -0.490909100       2504.98120      -1.70637035    
 -0.500000000       2.84000009E-16 -0.490909100       2504.98120      -1.70637035    
  0.479746491      0.140866295     -0.490909100       1860.44421       1.92124832    
  0.500000000       0.00000000     -0.490909100       1860.44421       1.92124832    
  0.500000000       0.00000000     -0.572727323       1860.44421       1.92124832    
  0.479746491      0.140866295     -0.572727323       1860.44421       1.92124832    
  0.420626789      0.270320386     -0.490909100       1687.39172       1.92836833    
  0.479746491      0.140866295     -0.490909100       1687.39172       1.92836833    
  0.479746491      0.140866295     -0.572727323       1687.39172       1.92836833    
  0.420626789      0.270320386     -0.572727323       1687.39172       1.92836833    
  0.327430397      0.377874792     -0.490909100       1357.14722       1.95331812    
  0.420626789      0.270320386     -0.490909100       1357.14722       1.95331812    
  0.420626789      0.270320386     -0.572727323       1357.14722       1.95331812    
  0.327430397      0.377874792     -0.572727323       1357.14722       1.95331812    
  0.207707494      0.454816014     -0.490909100       903.566650       2.03889441    
  0.327430397      0.377874792     -0.490909100       903.566650       2.03889441    
  0.327430397      0.377874792     -0.572727323       903.566650       2.03889441    
  0.207707494      0.454816014     -0.572727323       903.566650       2.03889441    
   7.11574182E-02  0.494910687     -0.490909100       409.153320       2.45923400    
  0.207707494      0.454816014     -0.490909100       409.153320       2.45923400    
  0.207707494      0.454816014     -0.572727323       409.153320       2.45923400    
   7.11574182E-02  0.494910687     -0.572727323       409.153320       2.45923400    
  -7.11574182E-02  0.494910687     -0.490909100       426.028046      -2.21390295    
   7.11574182E-02  0.494910687     -0.490909100       426.028046      -2.21390295    
   7.11574182E-02  0.494910687     -0.572727323       426.028046      -2.21390295    
  -7.11574182E-02  0.494910687     -0.572727323       426.028046      -2.21390295    
 -0.207707494      0.454816014     -0.490909100       967.869019      -1.81184328    
  -7.11574182E-02  0.494910687     -0.490909100       967.869019      -1.81184328    
  -7.11574182E-02  0.494910687     -0.572727323       967.869019      -1.81184328    
 -0.207707494      0.454816014     -0.572727323       967.869019      -1.81184328    
 -0.327430397      0.377874792     -0.490909100       1507.77771      -1.73179829    
 -0.207707494      0.454816014     -0.490909100       1507.77771      -1.73179829    
 -0.207707494      0.454816014     -0.572727323       1507.77771      -1.73179829    
 -0.327430397      0.377874792     -0.572727323       1507.77771      -1.73179829    
 -0.420626789      0.270320386     -0.490909100       1960.35388      -1.71131527    
 -0.327430397      0.377874792     -0.490909100       1960.35388      -1.71131527    
 -0.327430397      0.377874792     -0.572727323       1960.35388      -1.71131527    
 -0.420626789      0.270320386     -0.572727323       1960.35388      -1.71131527    
 -0.479746491      0.140866295     -0.490909100       2284.00879      -1.70753431    
 -0.420626789      0.270320386     -0.490909100       2284.00879      -1.70753431    
 -0.420626789      0.270320386     -0.572727323       2284.00879      -1.70753431    
 -0.479746491      0.140866295     -0.572727323       2284.00879      -1.70753431    
 -0.500000000       2.84000009E-16 -0.490909100       2452.39185      -1.70777035    
 -0.479746491      0.140866295     -0.490909100       2452.39185      -1.70777035    
 -0.479746491      0.140866295     -0.572727323       2452.39185      -1.70777035    
 -0.500000000       2.84000009E-16 -0.572727323       2452.39185      -1.70777035    
  0.479746491      0.140866295     -0.572727323       1804.14819       1.92725241    
  0.500000000       0.00000000     -0.572727323       1804.14819       1.92725241    
  0.500000000       0.00000000     -0.654545426       1804.14819       1.92725241    
  0.479746491      0.140866295     -0.654545426       1804.14819       1.92725241    
  0.420626789      0.270320386     -0.572727323       1636.06970       1.93500054    
  0.479746491      0.140866295     -0.572727323       1636.06970       1.93500054    
  0.479746491      0.140866295     -0.654545426       1636.06970       1.93500054    
  0.420626789      0.270320386     -0.654545426       1636.06970       1.93500054    
  0.327430397      0.377874792     -0.572727323       1315.43274       1.96160173    
  0.420626789      0.270320386     -0.572727323       1315.43274       1.96160173    
  0.420626789      0.270320386     -0.654545426       1315.43274       1.96160173    
  0.327430397      0.377874792     -0.654545426       1315.43274       1.96160173    
  0.207707494      0.454816014     -0.572727323       875.591248       2.05149555    
  0.327430397      0.377874792     -0.572727323       875.591248       2.05149555    
  0.327430397      0.377874792     -0.654545426       875.591248       2.05149555    
  0.207707494      0.454816014     -0.654545426       875.591248       2.05149555    
   7.11574182E-02  0.494910687     -0.572727323       399.761627       2.48659825    
  0.207707494      0.454816014     -0.572727323       399.761627       2.48659825    
  0.207707494      0.454816014     -0.654545426       399.761627       2.48659825    
   7.11574182E-02  0.494910687     -0.654545426       399.761627       2.48659825    
  -7.11574182E-02  0.494910687     -0.572727323       424.609222      -2.21893525    
   7.11574182E-02  0.494910687     -0.572727323       424.609222      -2.21893525    
   7.11574182E-02  0.494910687     -0.654545426       424.609222      -2.21893525    
  -7.11574182E-02  0.494910687     -0.654545426       424.609222      -2.21893525    
 -0.207707494      0.454816014     -0.572727323       949.342285      -1.81776261    
  -7.11574182E-02  0.494910687     -0.572727323       949.342285      -1.81776261    
  -7.11574182E-02  0.494910687     -0.654545426       949.342285      -1.81776261    
 -0.207707494      0.454816014     -0.654545426       949.342285      -1.81776261    
 -0.327430397      0.377874792     -0.572727323       1473.41296      -1.73568594    
 -0.207707494      0.454816014     -0.572727323       1473.41296      -1.73568594    
 -0.207707494      0.454816014     -0.654545426       1473.41296      -1.73568594    
 -0.327430397      0.377874792     -0.654545426       1473.41296      -1.73568594    
 -0.420626789      0.270320386     -0.572727323       1912.98950      -1.71410346    
 -0.327430397      0.377874792     -0.572727323       1912.98950      -1.71410346    
 -0.327430397      0.377874792     -0.654545426       1912.98950      -1.71410346    
 -0.420626789      0.270320386     -0.654545426       1912.98950      -1.71410346    
 -0.479746491      0.140866295     -0.572727323       2227.40454      -1.70974159    
 -0.420626789      0.270320386     -0.572727323       2227.40454      -1.70974159    
 -0.420626789      0.270320386     -0.654545426       2227.40454      -1.70974159    