 VARIABLES="X" "Y" "Z" "abs(p) (Pa)" "angle(p) (rad)"
ZONE N=    528,E =     462, F=FEPOINT, ET=QUADRILATERAL
  0.479746491      0.140866295       0.00000000       294.631378       2.65128279    
  0.500000000       0.00000000       0.00000000       294.631378       2.65128279    
  0.500000000       0.00000000      -8.18181783E-02   294.631378       2.65128279    
  0.479746491      0.140866295      -8.18181783E-02   294.631378       2.65128279    
  0.420626789      0.270320386       0.00000000       294.631439       2.65128279    
  0.479746491      0.140866295       0.00000000       294.631439       2.65128279    
  0.479746491      0.140866295      -8.18181783E-02   294.631439       2.65128279    
  0.420626789      0.270320386      -8.18181783E-02   294.631439       2.65128279    
  0.327430397      0.377874792       0.00000000       294.631195       2.65128255    
  0.420626789      0.270320386       0.00000000       294.631195       2.65128255    
  0.420626789      0.270320386      -8.18181783E-02   294.631195       2.65128255    
  0.327430397      0.377874792      -8.18181783E-02   294.631195       2.65128255    
  0.207707494      0.454816014       0.00000000       294.631226       2.65128231    
  0.327430397      0.377874792       0.00000000       294.631226       2.65128231    
  0.327430397      0.377874792      -8.18181783E-02   294.631226       2.65128231    
  0.207707494      0.454816014      -8.18181783E-02   294.631226       2.65128231    
   7.11574182E-02  0.494910687       0.00000000       294.631317       2.65128255    
  0.207707494      0.454816014       0.00000000       294.631317       2.65128255    
  0.207707494      0.454816014      -8.18181783E-02   294.631317       2.65128255    
   7.11574182E-02  0.494910687      -8.18181783E-02   294.631317       2.65128255    
  -7.11574182E-02  0.494910687       0.00000000       294.631409       2.65128231    
   7.11574182E-02  0.494910687       0.00000000       294.631409       2.65128231    
   7.11574182E-02  0.494910687      -8.18181783E-02   294.631409       2.65128231    
  -7.11574182E-02  0.494910687      -8.18181783E-02   294.631409       2.65128231    
 -0.207707494      0.454816014       0.00000000       294.631287       2.65128231    
  -7.11574182E-02  0.494910687       0.00000000       294.631287       2.65128231    
  -7.11574182E-02  0.494910687      -8.18181783E-02   294.631287       2.65128231    
 -0.207707494      0.454816014      -8.18181783E-02   294.631287       2.65128231    
 -0.327430397      0.377874792       0.00000000       294.631195       2.65128255    
 -0.207707494      0.454816014       0.00000000       294.631195       2.65128255    
 -0.207707494      0.454816014      -8.18181783E-02   294.631195       2.65128255    
 -0.327430397      0.377874792      -8.18181783E-02   294.631195       2.65128255    
 -0.420626789      0.270320386       0.00000000       294.631439       2.65128279    
 -0.327430397      0.377874792       0.00000000       294.631439       2.65128279    
 -0.327430397      0.377874792      -8.18181783E-02   294.631439       2.65128279    
 -0.420626789      0.270320386      -8.18181783E-02   294.631439       2.65128279    
 -0.479746491      0.140866295       0.00000000       294.631439       2.65128279    
 -0.420626789      0.270320386       0.00000000       294.631439       2.65128279    
 -0.420626789      0.270320386      -8.18181783E-02   294.631439       2.65128279    
 -0.479746491      0.140866295      -8.18181783E-02   294.631439       2.65128279    
 -0.500000000       2.84000009E-16   0.00000000       294.631470       2.65128326    
 -0.479746491      0.140866295       0.00000000       294.631470       2.65128326    
 -0.479746491      0.140866295      -8.18181783E-02   294.631470       2.65128326    
 -0.500000000       2.84000009E-16  -8.18181783E-02   294.631470       2.65128326    
  0.479746491      0.140866295      -8.18181783E-02   290.475098       2.64376092    
  0.500000000       0.00000000      -8.18181783E-02   290.475098       2.64376092    
  0.500000000       0.00000000     -0.163636401       290.475098       2.64376092    
  0.479746491      0.140866295     -0.163636401       290.475098       2.64376092    
  0.420626789      0.270320386      -8.18181783E-02   290.474945       2.64376116    
  0.479746491      0.140866295      -8.18181783E-02   290.474945       2.64376116    
  0.479746491      0.140866295     -0.163636401       290.474945       2.64376116    
  0.420626789      0.270320386     -0.163636401       290.474945       2.64376116    
  0.327430397      0.377874792      -8.18181783E-02   290.474976       2.64375997    
  0.420626789      0.270320386      -8.18181783E-02   290.474976       2.64375997    
  0.420626789      0.270320386     -0.163636401       290.474976       2.64375997    
  0.327430397      0.377874792     -0.163636401       290.474976       2.64375997    
  0.207707494      0.454816014      -8.18181783E-02   290.475037       2.64376068    
  0.327430397      0.377874792      -8.18181783E-02   290.475037       2.64376068    
  0.327430397      0.377874792     -0.163636401       290.475037       2.64376068    
  0.207707494      0.454816014     -0.163636401       290.475037       2.64376068    
   7.11574182E-02  0.494910687      -8.18181783E-02   290.475189       2.64376020    
  0.207707494      0.454816014      -8.18181783E-02   290.475189       2.64376020    
  0.207707494      0.454816014     -0.163636401       290.475189       2.64376020    
   7.11574182E-02  0.494910687     -0.163636401       290.475189       2.64376020    
  -7.11574182E-02  0.494910687      -8.18181783E-02   290.474915       2.64376068    
   7.11574182E-02  0.494910687      -8.18181783E-02   290.474915       2.64376068    
   7.11574182E-02  0.494910687     -0.163636401       290.474915       2.64376068    
  -7.11574182E-02  0.494910687     -0.163636401       290.474915       2.64376068    
 -0.207707494      0.454816014      -8.18181783E-02   290.475098       2.64376044    
  -7.11574182E-02  0.494910687      -8.18181783E-02   290.475098       2.64376044    
  -7.11574182E-02  0.494910687     -0.163636401       290.475098       2.64376044    
 -0.207707494      0.454816014     -0.163636401       290.475098       2.64376044    
 -0.327430397      0.377874792      -8.18181783E-02   290.475128       2.64376044    
 -0.207707494      0.454816014      -8.18181783E-02   290.475128       2.64376044    
 -0.207707494      0.454816014     -0.163636401       290.475128       2.64376044    
 -0.327430397      0.377874792     -0.163636401       290.475128       2.64376044    
 -0.420626789      0.270320386      -8.18181783E-02   290.475067       2.64375973    
 -0.327430397      0.377874792      -8.18181783E-02   290.475067       2.64375973    
 -0.327430397      0.377874792     -0.163636401       290.475067       2.64375973    
 -0.420626789      0.270320386     -0.163636401       290.475067       2.64375973    
 -0.479746491      0.140866295      -8.18181783E-02   290.475067       2.64376044    
 -0.420626789      0.270320386      -8.18181783E-02   290.475067       2.64376044    
 -0.420626789      0.270320386     -0.163636401       290.475067       2.64376044    
 -0.479746491      0.140866295     -0.163636401       290.475067       2.64376044    
 -0.500000000       2.84000009E-16  -8.18181783E-02   290.475159       2.64376044    
 -0.479746491      0.140866295      -8.18181783E-02   290.475159       2.64376044    
 -0.479746491      0.140866295     -0.163636401       290.475159       2.64376044    
 -0.500000000       2.84000009E-16 -0.163636401       290.475159       2.64376044    
  0.479746491      0.140866295     -0.163636401       288.109894       2.62816501    
  0.500000000       0.00000000     -0.163636401       288.109894       2.62816501    
  0.500000000       0.00000000     -0.245454505       288.109894       2.62816501    
  0.479746491      0.140866295     -0.245454505       288.109894       2.62816501    
  0.420626789      0.270320386     -0.163636401       288.109680       2.62816405    
  0.479746491      0.140866295     -0.163636401       288.109680       2.62816405    
  0.479746491      0.140866295     -0.245454505       288.109680       2.62816405    
  0.420626789      0.270320386     -0.245454505       288.109680       2.62816405    
  0.327430397      0.377874792     -0.163636401       288.109680       2.62816429    
  0.420626789      0.270320386     -0.163636401       288.109680       2.62816429    
  0.420626789      0.270320386     -0.245454505       288.109680       2.62816429    
  0.327430397      0.377874792     -0.245454505       288.109680       2.62816429    
  0.207707494      0.454816014     -0.163636401       288.109650       2.62816453    
  0.327430397      0.377874792     -0.163636401       288.109650       2.62816453    
  0.327430397      0.377874792     -0.245454505       288.109650       2.62816453    
  0.207707494      0.454816014     -0.245454505       288.109650       2.62816453    
   7.11574182E-02  0.494910687     -0.163636401       288.109894       2.62816453    
  0.207707494      0.454816014     -0.163636401       288.109894       2.62816453    
  0.207707494      0.454816014     -0.245454505       288.109894       2.62816453    
   7.11574182E-02  0.494910687     -0.245454505       288.109894       2.62816453    
  -7.11574182E-02  0.494910687     -0.163636401       288.109863       2.62816477    
   7.11574182E-02  0.494910687     -0.163636401       288.109863       2.62816477    
   7.11574182E-02  0.494910687     -0.245454505       288.109863       2.62816477    
  -7.11574182E-02  0.494910687     -0.245454505       288.109863       2.62816477    
 -0.207707494      0.454816014     -0.163636401       288.109863       2.62816429    
  -7.11574182E-02  0.494910687     -0.163636401       288.109863       2.62816429    
  -7.11574182E-02  0.494910687     -0.245454505       288.109863       2.62816429    
 -0.207707494      0.454816014     -0.245454505       288.109863       2.62816429    
 -0.327430397      0.377874792     -0.163636401       288.109650       2.62816453    
 -0.207707494      0.454816014     -0.163636401       288.109650       2.62816453    
 -0.207707494      0.454816014     -0.245454505       288.109650       2.62816453    
 -0.327430397      0.377874792     -0.245454505       288.109650       2.62816453    
 -0.420626789      0.270320386     -0.163636401       288.109772       2.62816548    
 -0.327430397      0.377874792     -0.163636401       288.109772       2.62816548    
 -0.327430397      0.377874792     -0.245454505       288.109772       2.62816548    
 -0.420626789      0.270320386     -0.245454505       288.109772       2.62816548    
 -0.479746491      0.140866295     -0.163636401       288.109741       2.62816453    
 -0.420626789      0.270320386     -0.163636401       288.109741       2.62816453    
 -0.420626789      0.270320386     -0.245454505       288.109741       2.62816453    
 -0.479746491      0.140866295     -0.245454505       288.109741       2.62816453    
 -0.500000000       2.84000009E-16 -0.163636401       288.109955       2.62816477    
 -0.479746491      0.140866295     -0.163636401       288.109955       2.62816477    
 -0.479746491      0.140866295     -0.245454505       288.109955       2.62816477    
 -0.500000000       2.84000009E-16 -0.245454505       288.109955       2.62816477    
  0.479746491      0.140866295     -0.245454505       287.679169       2.60430431    
  0.500000000       0.00000000     -0.245454505       287.679169       2.60430431    
  0.500000000       0.00000000     -0.327272713       287.679169       2.60430431    
  0.479746491      0.140866295     -0.327272713       287.679169       2.60430431    
  0.420626789      0.270320386     -0.245454505       287.679230       2.60430503    
  0.479746491      0.140866295     -0.245454505       287.679230       2.60430503    
  0.479746491      0.140866295     -0.327272713       287.679230       2.60430503    
  0.420626789      0.270320386     -0.327272713       287.679230       2.60430503    
  0.327430397      0.377874792     -0.245454505       287.679443       2.60430479    
  0.420626789      0.270320386     -0.245454505       287.679443       2.60430479    
  0.420626789      0.270320386     -0.327272713       287.679443       2.60430479    
  0.327430397      0.377874792     -0.327272713       287.679443       2.60430479    
  0.207707494      0.454816014     -0.245454505       287.679260       2.60430431    
  0.327430397      0.377874792     -0.245454505       287.679260       2.60430431    
  0.327430397      0.377874792     -0.327272713       287.679260       2.60430431    
  0.207707494      0.454816014     -0.327272713       287.679260       2.60430431    
   7.11574182E-02  0.494910687     -0.245454505       287.679413       2.60430408    
  0.207707494      0.454816014     -0.245454505       287.679413       2.60430408    
  0.207707494      0.454816014     -0.327272713       287.679413       2.60430408    
   7.11574182E-02  0.494910687     -0.327272713       287.679413       2.60430408    
  -7.11574182E-02  0.494910687     -0.245454505       287.679230       2.60430455    
   7.11574182E-02  0.494910687     -0.245454505       287.679230       2.60430455    
   7.11574182E-02  0.494910687     -0.327272713       287.679230       2.60430455    
  -7.11574182E-02  0.494910687     -0.327272713       287.679230       2.60430455    
 -0.207707494      0.454816014     -0.245454505       287.679382       2.60430431    
  -7.11574182E-02  0.494910687     -0.245454505       287.679382       2.60430431    
  -7.11574182E-02  0.494910687     -0.327272713       287.679382       2.60430431    
 -0.207707494      0.454816014     -0.327272713       287.679382       2.60430431    
 -0.327430397      0.377874792     -0.245454505       287.679199       2.60430455    
 -0.207707494      0.454816014     -0.245454505       287.679199       2.60430455    
 -0.207707494      0.454816014     -0.327272713       287.679199       2.60430455    
 -0.327430397      0.377874792     -0.327272713       287.679199       2.60430455    
 -0.420626789      0.270320386     -0.245454505       287.679382       2.60430503    
 -0.327430397      0.377874792     -0.245454505       287.679382       2.60430503    
 -0.327430397      0.377874792     -0.327272713       287.679382       2.60430503    
 -0.420626789      0.270320386     -0.327272713       287.679382       2.60430503    
 -0.479746491      0.140866295     -0.245454505       287.679321       2.60430479    
 -0.420626789      0.270320386     -0.245454505       287.679321       2.60430479    
 -0.420626789      0.270320386     -0.327272713       287.679321       2.60430479    
 -0.479746491      0.140866295     -0.327272713       287.679321       2.60430479    
 -0.500000000       2.84000009E-16 -0.245454505       287.679474       2.60430455    
 -0.479746491      0.140866295     -0.245454505       287.679474       2.60430455    
 -0.479746491      0.140866295     -0.327272713       287.679474       2.60430455    
 -0.500000000       2.84000009E-16 -0.327272713       287.679474       2.60430455    
  0.479746491      0.140866295     -0.327272713       289.586456       2.57130790    
  0.500000000       0.00000000     -0.327272713       289.586456       2.57130790    
  0.500000000       0.00000000     -0.409090906       289.586456       2.57130790    
  0.479746491      0.140866295     -0.409090906       289.586456       2.57130790    
  0.420626789      0.270320386     -0.327272713       289.586365       2.57130766    
  0.479746491      0.140866295     -0.327272713       289.586365       2.57130766    
  0.479746491      0.140866295     -0.409090906       289.586365       2.57130766    
  0.420626789      0.270320386     -0.409090906       289.586365       2.57130766    
  0.327430397      0.377874792     -0.327272713       289.586151       2.57130766    
  0.420626789      0.270320386     -0.327272713       289.586151       2.57130766    
  0.420626789      0.270320386     -0.409090906       289.586151       2.57130766    
  0.327430397      0.377874792     -0.409090906       289.586151       2.57130766    
  0.207707494      0.454816014     -0.327272713       289.586273       2.57130814    
  0.327430397      0.377874792     -0.327272713       289.586273       2.57130814    
  0.327430397      0.377874792     -0.409090906       289.586273       2.57130814    
  0.207707494      0.454816014     -0.409090906       289.586273       2.57130814    
   7.11574182E-02  0.494910687     -0.327272713       289.586395       2.57130790    
  0.207707494      0.454816014     -0.327272713       289.586395       2.57130790    
  0.207707494      0.454816014     -0.409090906       289.586395       2.57130790    
   7.11574182E-02  0.494910687     -0.409090906       289.586395       2.57130790    
  -7.11574182E-02  0.494910687     -0.327272713       289.586365       2.57130837    
   7.11574182E-02  0.494910687     -0.327272713       289.586365       2.57130837    
   7.11574182E-02  0.494910687     -0.409090906       289.586365       2.57130837    
  -7.11574182E-02  0.494910687     -0.409090906       289.586365       2.57130837    
 -0.207707494      0.454816014     -0.327272713       289.586395       2.57130790    
  -7.11574182E-02  0.494910687     -0.327272713       289.586395       2.57130790    
  -7.11574182E-02  0.494910687     -0.409090906       289.586395       2.57130790    
 -0.207707494      0.454816014     -0.409090906       289.586395       2.57130790    
 -0.327430397      0.377874792     -0.327272713       289.586273       2.57130742    
 -0.207707494      0.454816014     -0.327272713       289.586273       2.57130742    
 -0.207707494      0.454816014     -0.409090906       289.586273       2.57130742    
 -0.327430397      0.377874792     -0.409090906       289.586273       2.57130742    
 -0.420626789      0.270320386     -0.327272713       289.586365       2.57130814    
 -0.327430397      0.377874792     -0.327272713       289.586365       2.57130814    
 -0.327430397      0.377874792     -0.409090906       289.586365       2.57130814    
 -0.420626789      0.270320386     -0.409090906       289.586365       2.57130814    
 -0.479746491      0.140866295     -0.327272713       289.586395       2.57130766    
 -0.420626789      0.270320386     -0.327272713       289.586395       2.57130766    
 -0.420626789      0.270320386     -0.409090906       289.586395       2.57130766    
 -0.479746491      0.140866295     -0.409090906       289.586395       2.57130766    
 -0.500000000       2.84000009E-16 -0.327272713       289.586365       2.57130814    
 -0.479746491      0.140866295     -0.327272713       289.586365       2.57130814    
 -0.479746491      0.140866295     -0.409090906       289.586365       2.57130814    
 -0.500000000       2.84000009E-16 -0.409090906       289.586365       2.57130814    
  0.479746491      0.140866295     -0.409090906       294.464966       2.52828431    
  0.500000000       0.00000000     -0.409090906       294.464966       2.52828431    
  0.500000000       0.00000000     -0.490909100       294.464966       2.52828431    
  0.479746491      0.140866295     -0.490909100       294.464966       2.52828431    
  0.420626789      0.270320386     -0.409090906       294.464935       2.52828431    
  0.479746491      0.140866295     -0.409090906       294.464935       2.52828431    
  0.479746491      0.140866295     -0.490909100       294.464935       2.52828431    
  0.420626789      0.270320386     -0.490909100       294.464935       2.52828431    
  0.327430397      0.377874792     -0.409090906       294.464966       2.52828455    
  0.420626789      0.270320386     -0.409090906       294.464966       2.52828455    
  0.420626789      0.270320386     -0.490909100       294.464966       2.52828455    
  0.327430397      0.377874792     -0.490909100       294.464966       2.52828455    
  0.207707494      0.454816014     -0.409090906       294.464996       2.52828526    
  0.327430397      0.377874792     -0.409090906       294.464996       2.52828526    
  0.327430397      0.377874792     -0.490909100       294.464996       2.52828526    
  0.207707494      0.454816014     -0.490909100       294.464996       2.52828526    
   7.11574182E-02  0.494910687     -0.409090906       294.465027       2.52828383    
  0.207707494      0.454816014     -0.409090906       294.465027       2.52828383    
  0.207707494      0.454816014     -0.490909100       294.465027       2.52828383    
   7.11574182E-02  0.494910687     -0.490909100       294.465027       2.52828383    
  -7.11574182E-02  0.494910687     -0.409090906       294.464935       2.52828383    
   7.11574182E-02  0.494910687     -0.409090906       294.464935       2.52828383    
   7.11574182E-02  0.494910687     -0.490909100       294.464935       2.52828383    
  -7.11574182E-02  0.494910687     -0.490909100       294.464935       2.52828383    
 -0.207707494      0.454816014     -0.409090906       294.465088       2.52828455    
  -7.11574182E-02  0.494910687     -0.409090906       294.465088       2.52828455    
  -7.11574182E-02  0.494910687     -0.490909100       294.465088       2.52828455    
 -0.207707494      0.454816014     -0.490909100       294.465088       2.52828455    
 -0.327430397      0.377874792     -0.409090906       294.465027       2.52828455    
 -0.207707494      0.454816014     -0.409090906       294.465027       2.52828455    
 -0.207707494      0.454816014     -0.490909100       294.465027       2.52828455    
 -0.327430397      0.377874792     -0.490909100       294.465027       2.52828455    
 -0.420626789      0.270320386     -0.409090906       294.465149       2.52828431    
 -0.327430397      0.377874792     -0.409090906       294.465149       2.52828431    
 -0.327430397      0.377874792     -0.490909100       294.465149       2.52828431    
 -0.420626789      0.270320386     -0.490909100       294.465149       2.52828431    
 -0.479746491      0.140866295     -0.409090906       294.464966       2.52828479    
 -0.420626789      0.270320386     -0.409090906       294.464966       2.52828479    
 -0.420626789      0.270320386     -0.490909100       294.464966       2.52828479    
 -0.479746491      0.140866295     -0.490909100       294.464966       2.52828479    
 -0.500000000       2.84000009E-16 -0.409090906       294.464874       2.52828455    
 -0.479746491      0.140866295     -0.409090906       294.464874       2.52828455    
 -0.479746491      0.140866295     -0.490909100       294.464874       2.52828455    
 -0.500000000       2.84000009E-16 -0.490909100       294.464874       2.52828455    
  0.479746491      0.140866295     -0.490909100       303.702606       2.47272706    
  0.500000000       0.00000000     -0.490909100       303.702606       2.47272706    
  0.500000000       0.00000000     -0.572727323       303.702606       2.47272706    
  0.479746491      0.140866295     -0.572727323       303.702606       2.47272706    
  0.420626789      0.270320386     -0.490909100       303.702362       2.47272754    
  0.479746491      0.140866295     -0.490909100       303.702362       2.47272754    
  0.479746491      0.140866295     -0.572727323       303.702362       2.47272754    
  0.420626789      0.270320386     -0.572727323       303.702362       2.47272754    
  0.327430397      0.377874792     -0.490909100       303.702576       2.47272658    
  0.420626789      0.270320386     -0.490909100       303.702576       2.47272658    
  0.420626789      0.270320386     -0.572727323       303.702576       2.47272658    
  0.327430397      0.377874792     -0.572727323       303.702576       2.47272658    
  0.207707494      0.454816014     -0.490909100       303.702545       2.47272635    
  0.327430397      0.377874792     -0.490909100       303.702545       2.47272635    
  0.327430397      0.377874792     -0.572727323       303.702545       2.47272635    
  0.207707494      0.454816014     -0.572727323       303.702545       2.47272635    
   7.11574182E-02  0.494910687     -0.490909100       303.702393       2.47272682    
  0.207707494      0.454816014     -0.490909100       303.702393       2.47272682    
  0.207707494      0.454816014     -0.572727323       303.702393       2.47272682    
   7.11574182E-02  0.494910687     -0.572727323       303.702393       2.47272682    
  -7.11574182E-02  0.494910687     -0.490909100       303.702423       2.47272658    
   7.11574182E-02  0.494910687     -0.490909100       303.702423       2.47272658    
   7.11574182E-02  0.494910687     -0.572727323       303.702423       2.47272658    
  -7.11574182E-02  0.494910687     -0.572727323       303.702423       2.47272658    
 -0.207707494      0.454816014     -0.490909100       303.702576       2.47272658    
  -7.11574182E-02  0.494910687     -0.490909100       303.702576       2.47272658    
  -7.11574182E-02  0.494910687     -0.572727323       303.702576       2.47272658    
 -0.207707494      0.454816014     -0.572727323       303.702576       2.47272658    
 -0.327430397      0.377874792     -0.490909100       303.702667       2.47272682    
 -0.207707494      0.454816014     -0.490909100       303.702667       2.47272682    
 -0.207707494      0.454816014     -0.572727323       303.702667       2.47272682    
 -0.327430397      0.377874792     -0.572727323       303.702667       2.47272682    
 -0.420626789      0.270320386     -0.490909100       303.702484       2.47272706    
 -0.327430397      0.377874792     -0.490909100       303.702484       2.47272706    
 -0.327430397      0.377874792     -0.572727323       303.702484       2.47272706    
 -0.420626789      0.270320386     -0.572727323       303.702484       2.47272706    
 -0.479746491      0.140866295     -0.490909100       303.702606       2.47272730    
 -0.420626789      0.270320386     -0.490909100       303.702606       2.47272730    
 -0.420626789      0.270320386     -0.572727323       303.702606       2.47272730    
 -0.479746491      0.140866295     -0.572727323       303.702606       2.47272730    
 -0.500000000       2.84000009E-16 -0.490909100       303.702606       2.47272706    
 -0.479746491      0.140866295     -0.490909100       303.702606       2.47272706    
 -0.479746491      0.140866295     -0.572727323       303.702606       2.47272706    
 -0.500000000       2.84000009E-16 -0.572727323       303.702606       2.47272706    
  0.479746491      0.140866295     -0.572727323       319.283752       2.40327454    
  0.500000000       0.00000000     -0.572727323       319.283752       2.40327454    
  0.500000000       0.00000000     -0.654545426       319.283752       2.40327454    
  0.479746491      0.140866295     -0.654545426       319.283752       2.40327454    
  0.420626789      0.270320386     -0.572727323       319.283630       2.40327525    
  0.479746491      0.140866295     -0.572727323       319.283630       2.40327525    
  0.479746491      0.140866295     -0.654545426       319.283630       2.40327525    
  0.420626789      0.270320386     -0.654545426       319.283630       2.40327525    
  0.327430397      0.377874792     -0.572727323       319.283630       2.40327525    
  0.420626789      0.270320386     -0.572727323       319.283630       2.40327525    
  0.420626789      0.270320386     -0.654545426       319.283630       2.40327525    
  0.327430397      0.377874792     -0.654545426       319.283630       2.40327525    
  0.207707494      0.454816014     -0.572727323       319.283600       2.40327454    
  0.327430397      0.377874792     -0.572727323       319.283600       2.40327454    
  0.327430397      0.377874792     -0.654545426       319.283600       2.40327454    
  0.207707494      0.454816014     -0.654545426       319.283600       2.40327454    
   7.11574182E-02  0.494910687     -0.572727323       319.283752       2.40327382    
  0.207707494      0.454816014     -0.572727323       319.283752       2.40327382    
  0.207707494      0.454816014     -0.654545426       319.283752       2.40327382    
   7.11574182E-02  0.494910687     -0.654545426       319.283752       2.40327382    
  -7.11574182E-02  0.494910687     -0.572727323       319.283661       2.40327406    
   7.11574182E-02  0.494910687     -0.572727323       319.283661       2.40327406    
   7.11574182E-02  0.494910687     -0.654545426       319.283661       2.40327406    
  -7.11574182E-02  0.494910687     -0.654545426       319.283661       2.40327406    
 -0.207707494      0.454816014     -0.572727323       319.283569       2.40327406    
  -7.11574182E-02  0.494910687     -0.572727323       319.283569       2.40327406    
  -7.11574182E-02  0.494910687     -0.654545426       319.283569       2.40327406    
 -0.207707494      0.454816014     -0.654545426       319.283569       2.40327406    
 -0.327430397      0.377874792     -0.572727323       319.283691       2.40327454    
 -0.207707494      0.454816014     -0.572727323       319.283691       2.40327454    
 -0.207707494      0.454816014     -0.654545426       319.283691       2.40327454    
 -0.327430397      0.377874792     -0.654545426       319.283691       2.40327454    
 -0.420626789      0.270320386     -0.572727323       319.283691       2.40327477    
 -0.327430397      0.377874792     -0.572727323       319.283691       2.40327477    
 -0.327430397      0.377874792     -0.654545426       319.283691       2.40327477    
 -0.420626789      0.270320386     -0.654545426       319.283691       2.40327477    
 -0.479746491      0.140866295     -0.572727323       319.283478       2.40327573    
 -0.420626789      0.270320386     -0.572727323       319.283478       2.40327573    
 -0.420626789      0.270320386     -0.654545426       319.283478       2.40327573    