 VARIABLES="X" "Y" "Z" "abs(p) (Pa)" "angle(p) (rad)"
ZONE N=    528,E =     462, F=FEPOINT, ET=QUADRILATERAL
  0.479746491      0.140866295       0.00000000       629.869385      -2.59313440    
  0.500000000       0.00000000       0.00000000       629.869385      -2.59313440    
  0.500000000       0.00000000      -8.18181783E-02   629.869385      -2.59313440    
  0.479746491      0.140866295      -8.18181783E-02   629.869385      -2.59313440    
  0.420626789      0.270320386       0.00000000       578.841125      -2.59313416    
  0.479746491      0.140866295       0.00000000       578.841125      -2.59313416    
  0.479746491      0.140866295      -8.18181783E-02   578.841125      -2.59313416    
  0.420626789      0.270320386      -8.18181783E-02   578.841125      -2.59313416    
  0.327430397      0.377874792       0.00000000       480.918579      -2.59313440    
  0.420626789      0.270320386       0.00000000       480.918579      -2.59313440    
  0.420626789      0.270320386      -8.18181783E-02   480.918579      -2.59313440    
  0.327430397      0.377874792      -8.18181783E-02   480.918579      -2.59313440    
  0.207707494      0.454816014       0.00000000       344.034821      -2.59313416    
  0.327430397      0.377874792       0.00000000       344.034821      -2.59313416    
  0.327430397      0.377874792      -8.18181783E-02   344.034821      -2.59313416    
  0.207707494      0.454816014      -8.18181783E-02   344.034821      -2.59313416    
   7.11574182E-02  0.494910687       0.00000000       179.279694      -2.59313345    
  0.207707494      0.454816014       0.00000000       179.279694      -2.59313345    
  0.207707494      0.454816014      -8.18181783E-02   179.279694      -2.59313345    
   7.11574182E-02  0.494910687      -8.18181783E-02   179.279694      -2.59313345    
  -7.11574182E-02  0.494910687       0.00000000       1.04758925E-04   1.55344796    
   7.11574182E-02  0.494910687       0.00000000       1.04758925E-04   1.55344796    
   7.11574182E-02  0.494910687      -8.18181783E-02   1.04758925E-04   1.55344796    
  -7.11574182E-02  0.494910687      -8.18181783E-02   1.04758925E-04   1.55344796    
 -0.207707494      0.454816014       0.00000000       179.279678      0.548459053    
  -7.11574182E-02  0.494910687       0.00000000       179.279678      0.548459053    
  -7.11574182E-02  0.494910687      -8.18181783E-02   179.279678      0.548459053    
 -0.207707494      0.454816014      -8.18181783E-02   179.279678      0.548459053    
 -0.327430397      0.377874792       0.00000000       344.034973      0.548458338    
 -0.207707494      0.454816014       0.00000000       344.034973      0.548458338    
 -0.207707494      0.454816014      -8.18181783E-02   344.034973      0.548458338    
 -0.327430397      0.377874792      -8.18181783E-02   344.034973      0.548458338    
 -0.420626789      0.270320386       0.00000000       480.918701      0.548458219    
 -0.327430397      0.377874792       0.00000000       480.918701      0.548458219    
 -0.327430397      0.377874792      -8.18181783E-02   480.918701      0.548458219    
 -0.420626789      0.270320386      -8.18181783E-02   480.918701      0.548458219    
 -0.479746491      0.140866295       0.00000000       578.841431      0.548458576    
 -0.420626789      0.270320386       0.00000000       578.841431      0.548458576    
 -0.420626789      0.270320386      -8.18181783E-02   578.841431      0.548458576    
 -0.479746491      0.140866295      -8.18181783E-02   578.841431      0.548458576    
 -0.500000000       2.84000009E-16   0.00000000       629.869568      0.548458219    
 -0.479746491      0.140866295       0.00000000       629.869568      0.548458219    
 -0.479746491      0.140866295      -8.18181783E-02   629.869568      0.548458219    
 -0.500000000       2.84000009E-16  -8.18181783E-02   629.869568      0.548458219    
  0.479746491      0.140866295      -8.18181783E-02   393.808075      -2.82293177    
  0.500000000       0.00000000      -8.18181783E-02   393.808075      -2.82293177    
  0.500000000       0.00000000     -0.163636401       393.808075      -2.82293177    
  0.479746491      0.140866295     -0.163636401       393.808075      -2.82293177    
  0.420626789      0.270320386      -8.18181783E-02   361.904144      -2.82293200    
  0.479746491      0.140866295      -8.18181783E-02   361.904144      -2.82293200    
  0.479746491      0.140866295     -0.163636401       361.904144      -2.82293200    
  0.420626789      0.270320386     -0.163636401       361.904144      -2.82293200    
  0.327430397      0.377874792      -8.18181783E-02   300.680725      -2.82293177    
  0.420626789      0.270320386      -8.18181783E-02   300.680725      -2.82293177    
  0.420626789      0.270320386     -0.163636401       300.680725      -2.82293177    
  0.327430397      0.377874792     -0.163636401       300.680725      -2.82293177    
  0.207707494      0.454816014      -8.18181783E-02   215.098114      -2.82293200    
  0.327430397      0.377874792      -8.18181783E-02   215.098114      -2.82293200    
  0.327430397      0.377874792     -0.163636401       215.098114      -2.82293200    
  0.207707494      0.454816014     -0.163636401       215.098114      -2.82293200    
   7.11574182E-02  0.494910687      -8.18181783E-02   112.089470      -2.82293248    
  0.207707494      0.454816014      -8.18181783E-02   112.089470      -2.82293248    
  0.207707494      0.454816014     -0.163636401       112.089470      -2.82293248    
   7.11574182E-02  0.494910687     -0.163636401       112.089470      -2.82293248    
  -7.11574182E-02  0.494910687      -8.18181783E-02   5.87012764E-05  -1.64490485    
   7.11574182E-02  0.494910687      -8.18181783E-02   5.87012764E-05  -1.64490485    
   7.11574182E-02  0.494910687     -0.163636401       5.87012764E-05  -1.64490485    
  -7.11574182E-02  0.494910687     -0.163636401       5.87012764E-05  -1.64490485    
 -0.207707494      0.454816014      -8.18181783E-02   112.089508      0.318660766    
  -7.11574182E-02  0.494910687      -8.18181783E-02   112.089508      0.318660766    
  -7.11574182E-02  0.494910687     -0.163636401       112.089508      0.318660766    
 -0.207707494      0.454816014     -0.163636401       112.089508      0.318660766    
 -0.327430397      0.377874792      -8.18181783E-02   215.098099      0.318660647    
 -0.207707494      0.454816014      -8.18181783E-02   215.098099      0.318660647    
 -0.207707494      0.454816014     -0.163636401       215.098099      0.318660647    
 -0.327430397      0.377874792     -0.163636401       215.098099      0.318660647    
 -0.420626789      0.270320386      -8.18181783E-02   300.680756      0.318660855    
 -0.327430397      0.377874792      -8.18181783E-02   300.680756      0.318660855    
 -0.327430397      0.377874792     -0.163636401       300.680756      0.318660855    
 -0.420626789      0.270320386     -0.163636401       300.680756      0.318660855    
 -0.479746491      0.140866295      -8.18181783E-02   361.904083      0.318661124    
 -0.420626789      0.270320386      -8.18181783E-02   361.904083      0.318661124    
 -0.420626789      0.270320386     -0.163636401       361.904083      0.318661124    
 -0.479746491      0.140866295     -0.163636401       361.904083      0.318661124    
 -0.500000000       2.84000009E-16  -8.18181783E-02   393.808167      0.318661094    
 -0.479746491      0.140866295      -8.18181783E-02   393.808167      0.318661094    
 -0.479746491      0.140866295     -0.163636401       393.808167      0.318661094    
 -0.500000000       2.84000009E-16 -0.163636401       393.808167      0.318661094    
  0.479746491      0.140866295     -0.163636401       278.578857       2.78428340    
  0.500000000       0.00000000     -0.163636401       278.578857       2.78428340    
  0.500000000       0.00000000     -0.245454505       278.578857       2.78428340    
  0.479746491      0.140866295     -0.245454505       278.578857       2.78428340    
  0.420626789      0.270320386     -0.163636401       256.010010       2.78428221    
  0.479746491      0.140866295     -0.163636401       256.010010       2.78428221    
  0.479746491      0.140866295     -0.245454505       256.010010       2.78428221    
  0.420626789      0.270320386     -0.245454505       256.010010       2.78428221    
  0.327430397      0.377874792     -0.163636401       212.700790       2.78428388    
  0.420626789      0.270320386     -0.163636401       212.700790       2.78428388    
  0.420626789      0.270320386     -0.245454505       212.700790       2.78428388    
  0.327430397      0.377874792     -0.245454505       212.700790       2.78428388    
  0.207707494      0.454816014     -0.163636401       152.159805       2.78428316    
  0.327430397      0.377874792     -0.163636401       152.159805       2.78428316    
  0.327430397      0.377874792     -0.245454505       152.159805       2.78428316    
  0.207707494      0.454816014     -0.245454505       152.159805       2.78428316    
   7.11574182E-02  0.494910687     -0.163636401       79.2917480       2.78428340    
  0.207707494      0.454816014     -0.163636401       79.2917480       2.78428340    
  0.207707494      0.454816014     -0.245454505       79.2917480       2.78428340    
   7.11574182E-02  0.494910687     -0.245454505       79.2917480       2.78428340    
  -7.11574182E-02  0.494910687     -0.163636401       5.76596358E-05   1.63421023    
   7.11574182E-02  0.494910687     -0.163636401       5.76596358E-05   1.63421023    
   7.11574182E-02  0.494910687     -0.245454505       5.76596358E-05   1.63421023    
  -7.11574182E-02  0.494910687     -0.245454505       5.76596358E-05   1.63421023    
 -0.207707494      0.454816014     -0.163636401       79.2918015     -0.357311457    
  -7.11574182E-02  0.494910687     -0.163636401       79.2918015     -0.357311457    
  -7.11574182E-02  0.494910687     -0.245454505       79.2918015     -0.357311457    
 -0.207707494      0.454816014     -0.245454505       79.2918015     -0.357311457    
 -0.327430397      0.377874792     -0.163636401       152.159790     -0.357309282    
 -0.207707494      0.454816014     -0.163636401       152.159790     -0.357309282    
 -0.207707494      0.454816014     -0.245454505       152.159790     -0.357309282    
 -0.327430397      0.377874792     -0.245454505       152.159790     -0.357309282    
 -0.420626789      0.270320386     -0.163636401       212.700745     -0.357309043    
 -0.327430397      0.377874792     -0.163636401       212.700745     -0.357309043    
 -0.327430397      0.377874792     -0.245454505       212.700745     -0.357309043    
 -0.420626789      0.270320386     -0.245454505       212.700745     -0.357309043    
 -0.479746491      0.140866295     -0.163636401       256.009979     -0.357310385    
 -0.420626789      0.270320386     -0.163636401       256.009979     -0.357310385    
 -0.420626789      0.270320386     -0.245454505       256.009979     -0.357310385    
 -0.479746491      0.140866295     -0.245454505       256.009979     -0.357310385    
 -0.500000000       2.84000009E-16 -0.163636401       278.578888     -0.357309759    
 -0.479746491      0.140866295     -0.163636401       278.578888     -0.357309759    
 -0.479746491      0.140866295     -0.245454505       278.578888     -0.357309759    
 -0.500000000       2.84000009E-16 -0.245454505       278.578888     -0.357309759    
  0.479746491      0.140866295     -0.245454505       363.224854       2.09612012    
  0.500000000       0.00000000     -0.245454505       363.224854       2.09612012    
  0.500000000       0.00000000     -0.327272713       363.224854       2.09612012    
  0.479746491      0.140866295     -0.327272713       363.224854       2.09612012    
  0.420626789      0.270320386     -0.245454505       333.798706       2.09611964    
  0.479746491      0.140866295     -0.245454505       333.798706       2.09611964    
  0.479746491      0.140866295     -0.327272713       333.798706       2.09611964    
  0.420626789      0.270320386     -0.327272713       333.798706       2.09611964    
  0.327430397      0.377874792     -0.245454505       277.329559       2.09612036    
  0.420626789      0.270320386     -0.245454505       277.329559       2.09612036    
  0.420626789      0.270320386     -0.327272713       277.329559       2.09612036    
  0.327430397      0.377874792     -0.327272713       277.329559       2.09612036    
  0.207707494      0.454816014     -0.245454505       198.393616       2.09611940    
  0.327430397      0.377874792     -0.245454505       198.393616       2.09611940    
  0.327430397      0.377874792     -0.327272713       198.393616       2.09611940    
  0.207707494      0.454816014     -0.327272713       198.393616       2.09611940    
   7.11574182E-02  0.494910687     -0.245454505       103.384407       2.09612060    
  0.207707494      0.454816014     -0.245454505       103.384407       2.09612060    
  0.207707494      0.454816014     -0.327272713       103.384407       2.09612060    
   7.11574182E-02  0.494910687     -0.327272713       103.384407       2.09612060    
  -7.11574182E-02  0.494910687     -0.245454505       8.61541921E-05  -1.53158379    
   7.11574182E-02  0.494910687     -0.245454505       8.61541921E-05  -1.53158379    
   7.11574182E-02  0.494910687     -0.327272713       8.61541921E-05  -1.53158379    
  -7.11574182E-02  0.494910687     -0.327272713       8.61541921E-05  -1.53158379    
 -0.207707494      0.454816014     -0.245454505       103.384499      -1.04547262    
  -7.11574182E-02  0.494910687     -0.245454505       103.384499      -1.04547262    
  -7.11574182E-02  0.494910687     -0.327272713       103.384499      -1.04547262    
 -0.207707494      0.454816014     -0.327272713       103.384499      -1.04547262    
 -0.327430397      0.377874792     -0.245454505       198.393692      -1.04547346    
 -0.207707494      0.454816014     -0.245454505       198.393692      -1.04547346    
 -0.207707494      0.454816014     -0.327272713       198.393692      -1.04547346    
 -0.327430397      0.377874792     -0.327272713       198.393692      -1.04547346    
 -0.420626789      0.270320386     -0.245454505       277.329926      -1.04547286    
 -0.327430397      0.377874792     -0.245454505       277.329926      -1.04547286    
 -0.327430397      0.377874792     -0.327272713       277.329926      -1.04547286    
 -0.420626789      0.270320386     -0.327272713       277.329926      -1.04547286    
 -0.479746491      0.140866295     -0.245454505       333.798584      -1.04547274    
 -0.420626789      0.270320386     -0.245454505       333.798584      -1.04547274    
 -0.420626789      0.270320386     -0.327272713       333.798584      -1.04547274    
 -0.479746491      0.140866295     -0.327272713       333.798584      -1.04547274    
 -0.500000000       2.84000009E-16 -0.245454505       363.224976      -1.04547298    
 -0.479746491      0.140866295     -0.245454505       363.224976      -1.04547298    
 -0.479746491      0.140866295     -0.327272713       363.224976      -1.04547298    
 -0.500000000       2.84000009E-16 -0.327272713       363.224976      -1.04547298    
  0.479746491      0.140866295     -0.327272713       533.015320       1.81213009    
  0.500000000       0.00000000     -0.327272713       533.015320       1.81213009    
  0.500000000       0.00000000     -0.409090906       533.015320       1.81213009    
  0.479746491      0.140866295     -0.409090906       533.015320       1.81213009    
  0.420626789      0.270320386     -0.327272713       489.833649       1.81213009    
  0.479746491      0.140866295     -0.327272713       489.833649       1.81213009    
  0.479746491      0.140866295     -0.409090906       489.833649       1.81213009    
  0.420626789      0.270320386     -0.409090906       489.833649       1.81213009    
  0.327430397      0.377874792     -0.327272713       406.968475       1.81213021    
  0.420626789      0.270320386     -0.327272713       406.968475       1.81213021    
  0.420626789      0.270320386     -0.409090906       406.968475       1.81213021    
  0.327430397      0.377874792     -0.409090906       406.968475       1.81213021    
  0.207707494      0.454816014     -0.327272713       291.133270       1.81212997    
  0.327430397      0.377874792     -0.327272713       291.133270       1.81212997    
  0.327430397      0.377874792     -0.409090906       291.133270       1.81212997    
  0.207707494      0.454816014     -0.409090906       291.133270       1.81212997    
   7.11574182E-02  0.494910687     -0.327272713       151.712051       1.81213009    
  0.207707494      0.454816014     -0.327272713       151.712051       1.81213009    
  0.207707494      0.454816014     -0.409090906       151.712051       1.81213009    
   7.11574182E-02  0.494910687     -0.409090906       151.712051       1.81213009    
  -7.11574182E-02  0.494910687     -0.327272713       5.29690151E-05  -1.52793694    
   7.11574182E-02  0.494910687     -0.327272713       5.29690151E-05  -1.52793694    
   7.11574182E-02  0.494910687     -0.409090906       5.29690151E-05  -1.52793694    
  -7.11574182E-02  0.494910687     -0.409090906       5.29690151E-05  -1.52793694    
 -0.207707494      0.454816014     -0.327272713       151.712112      -1.32946253    
  -7.11574182E-02  0.494910687     -0.327272713       151.712112      -1.32946253    
  -7.11574182E-02  0.494910687     -0.409090906       151.712112      -1.32946253    
 -0.207707494      0.454816014     -0.409090906       151.712112      -1.32946253    
 -0.327430397      0.377874792     -0.327272713       291.133453      -1.32946277    
 -0.207707494      0.454816014     -0.327272713       291.133453      -1.32946277    
 -0.207707494      0.454816014     -0.409090906       291.133453      -1.32946277    
 -0.327430397      0.377874792     -0.409090906       291.133453      -1.32946277    
 -0.420626789      0.270320386     -0.327272713       406.968689      -1.32946253    
 -0.327430397      0.377874792     -0.327272713       406.968689      -1.32946253    
 -0.327430397      0.377874792     -0.409090906       406.968689      -1.32946253    
 -0.420626789      0.270320386     -0.409090906       406.968689      -1.32946253    
 -0.479746491      0.140866295     -0.327272713       489.833740      -1.32946253    
 -0.420626789      0.270320386     -0.327272713       489.833740      -1.32946253    
 -0.420626789      0.270320386     -0.409090906       489.833740      -1.32946253    
 -0.479746491      0.140866295     -0.409090906       489.833740      -1.32946253    
 -0.500000000       2.84000009E-16 -0.327272713       533.015442      -1.32946253    
 -0.479746491      0.140866295     -0.327272713       533.015442      -1.32946253    
 -0.479746491      0.140866295     -0.409090906       533.015442      -1.32946253    
 -0.500000000       2.84000009E-16 -0.409090906       533.015442      -1.32946253    
  0.479746491      0.140866295     -0.409090906       706.898071       1.69739199    
  0.500000000       0.00000000     -0.409090906       706.898071       1.69739199    
  0.500000000       0.00000000     -0.490909100       706.898071       1.69739199    
  0.479746491      0.140866295     -0.490909100       706.898071       1.69739199    
  0.420626789      0.270320386     -0.409090906       649.628967       1.69739211    
  0.479746491      0.140866295     -0.409090906       649.628967       1.69739211    
  0.479746491      0.140866295     -0.490909100       649.628967       1.69739211    
  0.420626789      0.270320386     -0.490909100       649.628967       1.69739211    
  0.327430397      0.377874792     -0.409090906       539.731506       1.69739199    
  0.420626789      0.270320386     -0.409090906       539.731506       1.69739199    
  0.420626789      0.270320386     -0.490909100       539.731506       1.69739199    
  0.327430397      0.377874792     -0.490909100       539.731506       1.69739199    
  0.207707494      0.454816014     -0.409090906       386.107849       1.69739199    
  0.327430397      0.377874792     -0.409090906       386.107849       1.69739199    
  0.327430397      0.377874792     -0.490909100       386.107849       1.69739199    
  0.207707494      0.454816014     -0.490909100       386.107849       1.69739199    
   7.11574182E-02  0.494910687     -0.409090906       201.203857       1.69739223    
  0.207707494      0.454816014     -0.409090906       201.203857       1.69739223    
  0.207707494      0.454816014     -0.490909100       201.203857       1.69739223    
   7.11574182E-02  0.494910687     -0.490909100       201.203857       1.69739223    
  -7.11574182E-02  0.494910687     -0.409090906       6.03559783E-05  -1.54556346    
   7.11574182E-02  0.494910687     -0.409090906       6.03559783E-05  -1.54556346    
   7.11574182E-02  0.494910687     -0.490909100       6.03559783E-05  -1.54556346    
  -7.11574182E-02  0.494910687     -0.490909100       6.03559783E-05  -1.54556346    
 -0.207707494      0.454816014     -0.409090906       201.204239      -1.44420063    
  -7.11574182E-02  0.494910687     -0.409090906       201.204239      -1.44420063    
  -7.11574182E-02  0.494910687     -0.490909100       201.204239      -1.44420063    
 -0.207707494      0.454816014     -0.490909100       201.204239      -1.44420063    
 -0.327430397      0.377874792     -0.409090906       386.107880      -1.44420063    
 -0.207707494      0.454816014     -0.409090906       386.107880      -1.44420063    
 -0.207707494      0.454816014     -0.490909100       386.107880      -1.44420063    
 -0.327430397      0.377874792     -0.490909100       386.107880      -1.44420063    
 -0.420626789      0.270320386     -0.409090906       539.731934      -1.44420075    
 -0.327430397      0.377874792     -0.409090906       539.731934      -1.44420075    
 -0.327430397      0.377874792     -0.490909100       539.731934      -1.44420075    
 -0.420626789      0.270320386     -0.490909100       539.731934      -1.44420075    
 -0.479746491      0.140866295     -0.409090906       649.629700      -1.44420075    
 -0.420626789      0.270320386     -0.409090906       649.629700      -1.44420075    
 -0.420626789      0.270320386     -0.490909100       649.629700      -1.44420075    
 -0.479746491      0.140866295     -0.490909100       649.629700      -1.44420075    
 -0.500000000       2.84000009E-16 -0.409090906       706.898071      -1.44420063    
 -0.479746491      0.140866295     -0.409090906       706.898071      -1.44420063    
 -0.479746491      0.140866295     -0.490909100       706.898071      -1.44420063    
 -0.500000000       2.84000009E-16 -0.490909100       706.898071      -1.44420063    
  0.479746491      0.140866295     -0.490909100       860.662048       1.64433253    
  0.500000000       0.00000000     -0.490909100       860.662048       1.64433253    
  0.500000000       0.00000000     -0.572727323       860.662048       1.64433253    
  0.479746491      0.140866295     -0.572727323       860.662048       1.64433253    
  0.420626789      0.270320386     -0.490909100       790.936462       1.64433253    
  0.479746491      0.140866295     -0.490909100       790.936462       1.64433253    
  0.479746491      0.140866295     -0.572727323       790.936462       1.64433253    
  0.420626789      0.270320386     -0.572727323       790.936462       1.64433253    
  0.327430397      0.377874792     -0.490909100       657.133545       1.64433253    
  0.420626789      0.270320386     -0.490909100       657.133545       1.64433253    
  0.420626789      0.270320386     -0.572727323       657.133545       1.64433253    
  0.327430397      0.377874792     -0.572727323       657.133545       1.64433253    
  0.207707494      0.454816014     -0.490909100       470.093933       1.64433253    
  0.327430397      0.377874792     -0.490909100       470.093933       1.64433253    
  0.327430397      0.377874792     -0.572727323       470.093933       1.64433253    
  0.207707494      0.454816014     -0.572727323       470.093933       1.64433253    
   7.11574182E-02  0.494910687     -0.490909100       244.969711       1.64433265    
  0.207707494      0.454816014     -0.490909100       244.969711       1.64433265    
  0.207707494      0.454816014     -0.572727323       244.969711       1.64433265    
   7.11574182E-02  0.494910687     -0.572727323       244.969711       1.64433265    
  -7.11574182E-02  0.494910687     -0.490909100       1.79921146E-04  -1.53738594    
   7.11574182E-02  0.494910687     -0.490909100       1.79921146E-04  -1.53738594    
   7.11574182E-02  0.494910687     -0.572727323       1.79921146E-04  -1.53738594    
  -7.11574182E-02  0.494910687     -0.572727323       1.79921146E-04  -1.53738594    
 -0.207707494      0.454816014     -0.490909100       244.969925      -1.49726009    
  -7.11574182E-02  0.494910687     -0.490909100       244.969925      -1.49726009    
  -7.11574182E-02  0.494910687     -0.572727323       244.969925      -1.49726009    
 -0.207707494      0.454816014     -0.572727323       244.969925      -1.49726009    
 -0.327430397      0.377874792     -0.490909100       470.094391      -1.49726021    
 -0.207707494      0.454816014     -0.490909100       470.094391      -1.49726021    
 -0.207707494      0.454816014     -0.572727323       470.094391      -1.49726021    
 -0.327430397      0.377874792     -0.572727323       470.094391      -1.49726021    
 -0.420626789      0.270320386     -0.490909100       657.133972      -1.49726009    
 -0.327430397      0.377874792     -0.490909100       657.133972      -1.49726009    
 -0.327430397      0.377874792     -0.572727323       657.133972      -1.49726009    
 -0.420626789      0.270320386     -0.572727323       657.133972      -1.49726009    
 -0.479746491      0.140866295     -0.490909100       790.936584      -1.49726009    
 -0.420626789      0.270320386     -0.490909100       790.936584      -1.49726009    
 -0.420626789      0.270320386     -0.572727323       790.936584      -1.49726009    
 -0.479746491      0.140866295     -0.572727323       790.936584      -1.49726009    
 -0.500000000       2.84000009E-16 -0.490909100       860.662231      -1.49726009    
 -0.479746491      0.140866295     -0.490909100       860.662231      -1.49726009    
 -0.479746491      0.140866295     -0.572727323       860.662231      -1.49726009    
 -0.500000000       2.84000009E-16 -0.572727323       860.662231      -1.49726009    
  0.479746491      0.140866295     -0.572727323       980.755676       1.61614215    
  0.500000000       0.00000000     -0.572727323       980.755676       1.61614215    
  0.500000000       0.00000000     -0.654545426       980.755676       1.61614215    
  0.479746491      0.140866295     -0.654545426       980.755676       1.61614215    
  0.420626789      0.270320386     -0.572727323       901.300537       1.61614215    
  0.479746491      0.140866295     -0.572727323       901.300537       1.61614215    
  0.479746491      0.140866295     -0.654545426       901.300537       1.61614215    
  0.420626789      0.270320386     -0.654545426       901.300537       1.61614215    
  0.327430397      0.377874792     -0.572727323       748.826904       1.61614215    
  0.420626789      0.270320386     -0.572727323       748.826904       1.61614215    
  0.420626789      0.270320386     -0.654545426       748.826904       1.61614215    
  0.327430397      0.377874792     -0.654545426       748.826904       1.61614215    
  0.207707494      0.454816014     -0.572727323       535.688477       1.61614215    
  0.327430397      0.377874792     -0.572727323       535.688477       1.61614215    
  0.327430397      0.377874792     -0.654545426       535.688477       1.61614215    
  0.207707494      0.454816014     -0.654545426       535.688477       1.61614215    
   7.11574182E-02  0.494910687     -0.572727323       279.151611       1.61614227    
  0.207707494      0.454816014     -0.572727323       279.151611       1.61614227    
  0.207707494      0.454816014     -0.654545426       279.151611       1.61614227    
   7.11574182E-02  0.494910687     -0.654545426       279.151611       1.61614227    
  -7.11574182E-02  0.494910687     -0.572727323       8.70931544E-05  -1.50627387    
   7.11574182E-02  0.494910687     -0.572727323       8.70931544E-05  -1.50627387    
   7.11574182E-02  0.494910687     -0.654545426       8.70931544E-05  -1.50627387    
  -7.11574182E-02  0.494910687     -0.654545426       8.70931544E-05  -1.50627387    
 -0.207707494      0.454816014     -0.572727323       279.151978      -1.52545047    
  -7.11574182E-02  0.494910687     -0.572727323       279.151978      -1.52545047    
  -7.11574182E-02  0.494910687     -0.654545426       279.151978      -1.52545047    
 -0.207707494      0.454816014     -0.654545426       279.151978      -1.52545047    
 -0.327430397      0.377874792     -0.572727323       535.688904      -1.52545047    
 -0.207707494      0.454816014     -0.572727323       535.688904      -1.52545047    
 -0.207707494      0.454816014     -0.654545426       535.688904      -1.52545047    
 -0.327430397      0.377874792     -0.654545426       535.688904      -1.52545047    
 -0.420626789      0.270320386     -0.572727323       748.827393      -1.52545047    
 -0.327430397      0.377874792     -0.572727323       748.827393      -1.52545047    
 -0.327430397      0.377874792     -0.654545426       748.827393      -1.52545047    
 -0.420626789      0.270320386     -0.654545426       748.827393      -1.52545047    
 -0.479746491      0.140866295     -0.572727323       901.301331      -1.52545047    
 -0.420626789      0.270320386     -0.572727323       901.301331      -1.52545047    
 -0.420626789      0.270320386     -0.654545426       901.301331      -1.52545047    