 VARIABLES="X" "Y" "Z" "abs(p) (Pa)" "angle(p) (rad)"
ZONE N=    528,E =     462, F=FEPOINT, ET=QUADRILATERAL
  0.479746491      0.140866295       0.00000000       6.70242798E-06  0.376590937    
  0.500000000       0.00000000       0.00000000       6.70242798E-06  0.376590937    
  0.500000000       0.00000000      -8.18181783E-02   6.70242798E-06  0.376590937    
  0.479746491      0.140866295      -8.18181783E-02   6.70242798E-06  0.376590937    
  0.420626789      0.270320386       0.00000000       2.15813780E-05 -0.694161892    
  0.479746491      0.140866295       0.00000000       2.15813780E-05 -0.694161892    
  0.479746491      0.140866295      -8.18181783E-02   2.15813780E-05 -0.694161892    
  0.420626789      0.270320386      -8.18181783E-02   2.15813780E-05 -0.694161892    
  0.327430397      0.377874792       0.00000000       2.67499236E-05  0.642497182    
  0.420626789      0.270320386       0.00000000       2.67499236E-05  0.642497182    
  0.420626789      0.270320386      -8.18181783E-02   2.67499236E-05  0.642497182    
  0.327430397      0.377874792      -8.18181783E-02   2.67499236E-05  0.642497182    
  0.207707494      0.454816014       0.00000000       2.59285389E-05 -0.728068590    
  0.327430397      0.377874792       0.00000000       2.59285389E-05 -0.728068590    
  0.327430397      0.377874792      -8.18181783E-02   2.59285389E-05 -0.728068590    
  0.207707494      0.454816014      -8.18181783E-02   2.59285389E-05 -0.728068590    
   7.11574182E-02  0.494910687       0.00000000       1.85556564E-05  0.906857014    
  0.207707494      0.454816014       0.00000000       1.85556564E-05  0.906857014    
  0.207707494      0.454816014      -8.18181783E-02   1.85556564E-05  0.906857014    
   7.11574182E-02  0.494910687      -8.18181783E-02   1.85556564E-05  0.906857014    
  -7.11574182E-02  0.494910687       0.00000000       2.28809813E-06   1.34786105    
   7.11574182E-02  0.494910687       0.00000000       2.28809813E-06   1.34786105    
   7.11574182E-02  0.494910687      -8.18181783E-02   2.28809813E-06   1.34786105    
  -7.11574182E-02  0.494910687      -8.18181783E-02   2.28809813E-06   1.34786105    
 -0.207707494      0.454816014       0.00000000       1.48126910E-05  -2.30048132    
  -7.11574182E-02  0.494910687       0.00000000       1.48126910E-05  -2.30048132    
  -7.11574182E-02  0.494910687      -8.18181783E-02   1.48126910E-05  -2.30048132    
 -0.207707494      0.454816014      -8.18181783E-02   1.48126910E-05  -2.30048132    
 -0.327430397      0.377874792       0.00000000       2.48194556E-05   2.30335021    
 -0.207707494      0.454816014       0.00000000       2.48194556E-05   2.30335021    
 -0.207707494      0.454816014      -8.18181783E-02   2.48194556E-05   2.30335021    
 -0.327430397      0.377874792      -8.18181783E-02   2.48194556E-05   2.30335021    
 -0.420626789      0.270320386       0.00000000       2.51653601E-05  -2.35927439    
 -0.327430397      0.377874792       0.00000000       2.51653601E-05  -2.35927439    
 -0.327430397      0.377874792      -8.18181783E-02   2.51653601E-05  -2.35927439    
 -0.420626789      0.270320386      -8.18181783E-02   2.51653601E-05  -2.35927439    
 -0.479746491      0.140866295       0.00000000       1.71513348E-05   2.47620702    
 -0.420626789      0.270320386       0.00000000       1.71513348E-05   2.47620702    
 -0.420626789      0.270320386      -8.18181783E-02   1.71513348E-05   2.47620702    
 -0.479746491      0.140866295      -8.18181783E-02   1.71513348E-05   2.47620702    
 -0.500000000       2.84000009E-16   0.00000000       6.40293774E-06  -2.46753716    
 -0.479746491      0.140866295       0.00000000       6.40293774E-06  -2.46753716    
 -0.479746491      0.140866295      -8.18181783E-02   6.40293774E-06  -2.46753716    
 -0.500000000       2.84000009E-16  -8.18181783E-02   6.40293774E-06  -2.46753716    
  0.479746491      0.140866295      -8.18181783E-02   4.86723184E-06  0.396025777    
  0.500000000       0.00000000      -8.18181783E-02   4.86723184E-06  0.396025777    
  0.500000000       0.00000000     -0.163636401       4.86723184E-06  0.396025777    
  0.479746491      0.140866295     -0.163636401       4.86723184E-06  0.396025777    
  0.420626789      0.270320386      -8.18181783E-02   1.95040993E-05 -0.911326230    
  0.479746491      0.140866295      -8.18181783E-02   1.95040993E-05 -0.911326230    
  0.479746491      0.140866295     -0.163636401       1.95040993E-05 -0.911326230    
  0.420626789      0.270320386     -0.163636401       1.95040993E-05 -0.911326230    
  0.327430397      0.377874792      -8.18181783E-02   1.97454792E-05  0.674011946    
  0.420626789      0.270320386      -8.18181783E-02   1.97454792E-05  0.674011946    
  0.420626789      0.270320386     -0.163636401       1.97454792E-05  0.674011946    
  0.327430397      0.377874792     -0.163636401       1.97454792E-05  0.674011946    
  0.207707494      0.454816014      -8.18181783E-02   2.32440379E-05 -0.927619398    
  0.327430397      0.377874792      -8.18181783E-02   2.32440379E-05 -0.927619398    
  0.327430397      0.377874792     -0.163636401       2.32440379E-05 -0.927619398    
  0.207707494      0.454816014     -0.163636401       2.32440379E-05 -0.927619398    
   7.11574182E-02  0.494910687      -8.18181783E-02   1.44271189E-05  0.963517964    
  0.207707494      0.454816014      -8.18181783E-02   1.44271189E-05  0.963517964    
  0.207707494      0.454816014     -0.163636401       1.44271189E-05  0.963517964    
   7.11574182E-02  0.494910687     -0.163636401       1.44271189E-05  0.963517964    
  -7.11574182E-02  0.494910687      -8.18181783E-02   1.61808111E-06   1.34715760    
   7.11574182E-02  0.494910687      -8.18181783E-02   1.61808111E-06   1.34715760    
   7.11574182E-02  0.494910687     -0.163636401       1.61808111E-06   1.34715760    
  -7.11574182E-02  0.494910687     -0.163636401       1.61808111E-06   1.34715760    
 -0.207707494      0.454816014      -8.18181783E-02   1.17573554E-05  -2.22113919    
  -7.11574182E-02  0.494910687      -8.18181783E-02   1.17573554E-05  -2.22113919    
  -7.11574182E-02  0.494910687     -0.163636401       1.17573554E-05  -2.22113919    
 -0.207707494      0.454816014     -0.163636401       1.17573554E-05  -2.22113919    
 -0.327430397      0.377874792      -8.18181783E-02   2.26781031E-05   2.12635565    
 -0.207707494      0.454816014      -8.18181783E-02   2.26781031E-05   2.12635565    
 -0.207707494      0.454816014     -0.163636401       2.26781031E-05   2.12635565    
 -0.327430397      0.377874792     -0.163636401       2.26781031E-05   2.12635565    
 -0.420626789      0.270320386      -8.18181783E-02   1.91582312E-05  -2.30670977    
 -0.327430397      0.377874792      -8.18181783E-02   1.91582312E-05  -2.30670977    
 -0.327430397      0.377874792     -0.163636401       1.91582312E-05  -2.30670977    
 -0.420626789      0.270320386     -0.163636401       1.91582312E-05  -2.30670977    
 -0.479746491      0.140866295      -8.18181783E-02   1.50583346E-05   2.27250767    
 -0.420626789      0.270320386      -8.18181783E-02   1.50583346E-05   2.27250767    
 -0.420626789      0.270320386     -0.163636401       1.50583346E-05   2.27250767    
 -0.479746491      0.140866295     -0.163636401       1.50583346E-05   2.27250767    
 -0.500000000       2.84000009E-16  -8.18181783E-02   4.98966756E-06  -2.37788701    
 -0.479746491      0.140866295      -8.18181783E-02   4.98966756E-06  -2.37788701    
 -0.479746491      0.140866295     -0.163636401       4.98966756E-06  -2.37788701    
 -0.500000000       2.84000009E-16 -0.163636401       4.98966756E-06  -2.37788701    
  0.479746491      0.140866295     -0.163636401       3.28031069E-06 -0.173572987    
  0.500000000       0.00000000     -0.163636401       3.28031069E-06 -0.173572987    
  0.500000000       0.00000000     -0.245454505       3.28031069E-06 -0.173572987    
  0.479746491      0.140866295     -0.245454505       3.28031069E-06 -0.173572987    
  0.420626789      0.270320386     -0.163636401       2.32666353E-05  -1.19226730    
  0.479746491      0.140866295     -0.163636401       2.32666353E-05  -1.19226730    
  0.479746491      0.140866295     -0.245454505       2.32666353E-05  -1.19226730    
  0.420626789      0.270320386     -0.245454505       2.32666353E-05  -1.19226730    
  0.327430397      0.377874792     -0.163636401       1.13814203E-05  0.222803667    
  0.420626789      0.270320386     -0.163636401       1.13814203E-05  0.222803667    
  0.420626789      0.270320386     -0.245454505       1.13814203E-05  0.222803667    
  0.327430397      0.377874792     -0.245454505       1.13814203E-05  0.222803667    
  0.207707494      0.454816014     -0.163636401       2.39291548E-05  -1.13830614    
  0.327430397      0.377874792     -0.163636401       2.39291548E-05  -1.13830614    
  0.327430397      0.377874792     -0.245454505       2.39291548E-05  -1.13830614    
  0.207707494      0.454816014     -0.245454505       2.39291548E-05  -1.13830614    
   7.11574182E-02  0.494910687     -0.163636401       8.72822056E-06  0.825065374    
  0.207707494      0.454816014     -0.163636401       8.72822056E-06  0.825065374    
  0.207707494      0.454816014     -0.245454505       8.72822056E-06  0.825065374    
   7.11574182E-02  0.494910687     -0.245454505       8.72822056E-06  0.825065374    
  -7.11574182E-02  0.494910687     -0.163636401       1.10444148E-06   1.33629608    
   7.11574182E-02  0.494910687     -0.163636401       1.10444148E-06   1.33629608    
   7.11574182E-02  0.494910687     -0.245454505       1.10444148E-06   1.33629608    
  -7.11574182E-02  0.494910687     -0.245454505       1.10444148E-06   1.33629608    
 -0.207707494      0.454816014     -0.163636401       7.01030785E-06  -2.39036107    
  -7.11574182E-02  0.494910687     -0.163636401       7.01030785E-06  -2.39036107    
  -7.11574182E-02  0.494910687     -0.245454505       7.01030785E-06  -2.39036107    
 -0.207707494      0.454816014     -0.245454505       7.01030785E-06  -2.39036107    
 -0.327430397      0.377874792     -0.163636401       2.34810668E-05   1.94610763    
 -0.207707494      0.454816014     -0.163636401       2.34810668E-05   1.94610763    
 -0.207707494      0.454816014     -0.245454505       2.34810668E-05   1.94610763    
 -0.327430397      0.377874792     -0.245454505       2.34810668E-05   1.94610763    
 -0.420626789      0.270320386     -0.163636401       1.05423514E-05  -2.64203191    
 -0.327430397      0.377874792     -0.163636401       1.05423514E-05  -2.64203191    
 -0.327430397      0.377874792     -0.245454505       1.05423514E-05  -2.64203191    
 -0.420626789      0.270320386     -0.245454505       1.05423514E-05  -2.64203191    
 -0.479746491      0.140866295     -0.163636401       1.47322899E-05   2.06550717    
 -0.420626789      0.270320386     -0.163636401       1.47322899E-05   2.06550717    
 -0.420626789      0.270320386     -0.245454505       1.47322899E-05   2.06550717    
 -0.479746491      0.140866295     -0.245454505       1.47322899E-05   2.06550717    
 -0.500000000       2.84000009E-16 -0.163636401       2.96388998E-06  -2.63611174    
 -0.479746491      0.140866295     -0.163636401       2.96388998E-06  -2.63611174    
 -0.479746491      0.140866295     -0.245454505       2.96388998E-06  -2.63611174    
 -0.500000000       2.84000009E-16 -0.245454505       2.96388998E-06  -2.63611174    
  0.479746491      0.140866295     -0.245454505       2.32834100E-06   3.62578444E-02
  0.500000000       0.00000000     -0.245454505       2.32834100E-06   3.62578444E-02
  0.500000000       0.00000000     -0.327272713       2.32834100E-06   3.62578444E-02
  0.479746491      0.140866295     -0.327272713       2.32834100E-06   3.62578444E-02
  0.420626789      0.270320386     -0.245454505       2.24841970E-05  -1.29179680    
  0.479746491      0.140866295     -0.245454505       2.24841970E-05  -1.29179680    
  0.479746491      0.140866295     -0.327272713       2.24841970E-05  -1.29179680    
  0.420626789      0.270320386     -0.327272713       2.24841970E-05  -1.29179680    
  0.327430397      0.377874792     -0.245454505       1.43227462E-05 -0.978696585    
  0.420626789      0.270320386     -0.245454505       1.43227462E-05 -0.978696585    
  0.420626789      0.270320386     -0.327272713       1.43227462E-05 -0.978696585    
  0.327430397      0.377874792     -0.327272713       1.43227462E-05 -0.978696585    
  0.207707494      0.454816014     -0.245454505       2.58192213E-05  -1.28728235    
  0.327430397      0.377874792     -0.245454505       2.58192213E-05  -1.28728235    
  0.327430397      0.377874792     -0.327272713       2.58192213E-05  -1.28728235    
  0.207707494      0.454816014     -0.327272713       2.58192213E-05  -1.28728235    
   7.11574182E-02  0.494910687     -0.245454505       8.54195787E-06   1.04809141    
  0.207707494      0.454816014     -0.245454505       8.54195787E-06   1.04809141    
  0.207707494      0.454816014     -0.327272713       8.54195787E-06   1.04809141    
   7.11574182E-02  0.494910687     -0.327272713       8.54195787E-06   1.04809141    
  -7.11574182E-02  0.494910687     -0.245454505       7.11452742E-07   1.30898356    
   7.11574182E-02  0.494910687     -0.245454505       7.11452742E-07   1.30898356    
   7.11574182E-02  0.494910687     -0.327272713       7.11452742E-07   1.30898356    
  -7.11574182E-02  0.494910687     -0.327272713       7.11452742E-07   1.30898356    
 -0.207707494      0.454816014     -0.245454505       7.43750934E-06  -2.09000492    
  -7.11574182E-02  0.494910687     -0.245454505       7.43750934E-06  -2.09000492    
  -7.11574182E-02  0.494910687     -0.327272713       7.43750934E-06  -2.09000492    
 -0.207707494      0.454816014     -0.327272713       7.43750934E-06  -2.09000492    
 -0.327430397      0.377874792     -0.245454505       2.51858091E-05   1.81949496    
 -0.207707494      0.454816014     -0.245454505       2.51858091E-05   1.81949496    
 -0.207707494      0.454816014     -0.327272713       2.51858091E-05   1.81949496    
 -0.327430397      0.377874792     -0.327272713       2.51858091E-05   1.81949496    
 -0.420626789      0.270320386     -0.245454505       1.09964230E-05   2.22194672    
 -0.327430397      0.377874792     -0.245454505       1.09964230E-05   2.22194672    
 -0.327430397      0.377874792     -0.327272713       1.09964230E-05   2.22194672    
 -0.420626789      0.270320386     -0.327272713       1.09964230E-05   2.22194672    
 -0.479746491      0.140866295     -0.245454505       1.26489904E-05   1.98041713    
 -0.420626789      0.270320386     -0.245454505       1.26489904E-05   1.98041713    
 -0.420626789      0.270320386     -0.327272713       1.26489904E-05   1.98041713    
 -0.479746491      0.140866295     -0.327272713       1.26489904E-05   1.98041713    
 -0.500000000       2.84000009E-16 -0.245454505       3.06978745E-06  -2.22484899    
 -0.479746491      0.140866295     -0.245454505       3.06978745E-06  -2.22484899    
 -0.479746491      0.140866295     -0.327272713       3.06978745E-06  -2.22484899    
 -0.500000000       2.84000009E-16 -0.327272713       3.06978745E-06  -2.22484899    
  0.479746491      0.140866295     -0.327272713       2.81340431E-06 -0.931616306    
  0.500000000       0.00000000     -0.327272713       2.81340431E-06 -0.931616306    
  0.500000000       0.00000000     -0.409090906       2.81340431E-06 -0.931616306    
  0.479746491      0.140866295     -0.409090906       2.81340431E-06 -0.931616306    
  0.420626789      0.270320386     -0.327272713       2.69569227E-05  -1.40434849    
  0.479746491      0.140866295     -0.327272713       2.69569227E-05  -1.40434849    
  0.479746491      0.140866295     -0.409090906       2.69569227E-05  -1.40434849    
  0.420626789      0.270320386     -0.409090906       2.69569227E-05  -1.40434849    
  0.327430397      0.377874792     -0.327272713       7.33073057E-06 -0.665659428    
  0.420626789      0.270320386     -0.327272713       7.33073057E-06 -0.665659428    
  0.420626789      0.270320386     -0.409090906       7.33073057E-06 -0.665659428    
  0.327430397      0.377874792     -0.409090906       7.33073057E-06 -0.665659428    
  0.207707494      0.454816014     -0.327272713       2.73355217E-05  -1.37905133    
  0.327430397      0.377874792     -0.327272713       2.73355217E-05  -1.37905133    
  0.327430397      0.377874792     -0.409090906       2.73355217E-05  -1.37905133    
  0.207707494      0.454816014     -0.409090906       2.73355217E-05  -1.37905133    
   7.11574182E-02  0.494910687     -0.327272713       3.99772171E-06  0.693033636    
  0.207707494      0.454816014     -0.327272713       3.99772171E-06  0.693033636    
  0.207707494      0.454816014     -0.409090906       3.99772171E-06  0.693033636    
   7.11574182E-02  0.494910687     -0.409090906       3.99772171E-06  0.693033636    
  -7.11574182E-02  0.494910687     -0.327272713       4.11465578E-07   1.24411917    
   7.11574182E-02  0.494910687     -0.327272713       4.11465578E-07   1.24411917    
   7.11574182E-02  0.494910687     -0.409090906       4.11465578E-07   1.24411917    
  -7.11574182E-02  0.494910687     -0.409090906       4.11465578E-07   1.24411917    
 -0.207707494      0.454816014     -0.327272713       3.41856980E-06  -2.46389580    
  -7.11574182E-02  0.494910687     -0.327272713       3.41856980E-06  -2.46389580    
  -7.11574182E-02  0.494910687     -0.409090906       3.41856980E-06  -2.46389580    
 -0.207707494      0.454816014     -0.409090906       3.41856980E-06  -2.46389580    
 -0.327430397      0.377874792     -0.327272713       2.64311748E-05   1.74084830    
 -0.207707494      0.454816014     -0.327272713       2.64311748E-05   1.74084830    
 -0.207707494      0.454816014     -0.409090906       2.64311748E-05   1.74084830    
 -0.327430397      0.377874792     -0.409090906       2.64311748E-05   1.74084830    
 -0.420626789      0.270320386     -0.327272713       4.91293031E-06   2.93539667    
 -0.327430397      0.377874792     -0.327272713       4.91293031E-06   2.93539667    
 -0.327430397      0.377874792     -0.409090906       4.91293031E-06   2.93539667    
 -0.420626789      0.270320386     -0.409090906       4.91293031E-06   2.93539667    
 -0.479746491      0.140866295     -0.327272713       1.65205238E-05   1.79261959    
 -0.420626789      0.270320386     -0.327272713       1.65205238E-05   1.79261959    
 -0.420626789      0.270320386     -0.409090906       1.65205238E-05   1.79261959    
 -0.479746491      0.140866295     -0.409090906       1.65205238E-05   1.79261959    
 -0.500000000       2.84000009E-16 -0.327272713       1.37240181E-06  -2.95093822    
 -0.479746491      0.140866295     -0.327272713       1.37240181E-06  -2.95093822    
 -0.479746491      0.140866295     -0.409090906       1.37240181E-06  -2.95093822    
 -0.500000000       2.84000009E-16 -0.409090906       1.37240181E-06  -2.95093822    
  0.479746491      0.140866295     -0.409090906       2.75006619E-06  -1.11324155    
  0.500000000       0.00000000     -0.409090906       2.75006619E-06  -1.11324155    
  0.500000000       0.00000000     -0.490909100       2.75006619E-06  -1.11324155    
  0.479746491      0.140866295     -0.490909100       2.75006619E-06  -1.11324155    
  0.420626789      0.270320386     -0.409090906       2.79212982E-05  -1.45474720    
  0.479746491      0.140866295     -0.409090906       2.79212982E-05  -1.45474720    
  0.479746491      0.140866295     -0.490909100       2.79212982E-05  -1.45474720    
  0.420626789      0.270320386     -0.490909100       2.79212982E-05  -1.45474720    
  0.327430397      0.377874792     -0.409090906       8.11298469E-06  -1.03043401    
  0.420626789      0.270320386     -0.409090906       8.11298469E-06  -1.03043401    
  0.420626789      0.270320386     -0.490909100       8.11298469E-06  -1.03043401    
  0.327430397      0.377874792     -0.490909100       8.11298469E-06  -1.03043401    
  0.207707494      0.454816014     -0.409090906       2.90610697E-05  -1.44066477    
  0.327430397      0.377874792     -0.409090906       2.90610697E-05  -1.44066477    
  0.327430397      0.377874792     -0.490909100       2.90610697E-05  -1.44066477    
  0.207707494      0.454816014     -0.490909100       2.90610697E-05  -1.44066477    
   7.11574182E-02  0.494910687     -0.409090906       2.74736249E-06  0.626016617    
  0.207707494      0.454816014     -0.409090906       2.74736249E-06  0.626016617    
  0.207707494      0.454816014     -0.490909100       2.74736249E-06  0.626016617    
   7.11574182E-02  0.494910687     -0.490909100       2.74736249E-06  0.626016617    
  -7.11574182E-02  0.494910687     -0.409090906       1.89246336E-07   1.04221439    
   7.11574182E-02  0.494910687     -0.409090906       1.89246336E-07   1.04221439    
   7.11574182E-02  0.494910687     -0.490909100       1.89246336E-07   1.04221439    
  -7.11574182E-02  0.494910687     -0.490909100       1.89246336E-07   1.04221439    
 -0.207707494      0.454816014     -0.409090906       2.51062761E-06  -2.44658661    
  -7.11574182E-02  0.494910687     -0.409090906       2.51062761E-06  -2.44658661    
  -7.11574182E-02  0.494910687     -0.490909100       2.51062761E-06  -2.44658661    
 -0.207707494      0.454816014     -0.490909100       2.51062761E-06  -2.44658661    
 -0.327430397      0.377874792     -0.409090906       2.79180658E-05   1.68706775    
 -0.207707494      0.454816014     -0.409090906       2.79180658E-05   1.68706775    
 -0.207707494      0.454816014     -0.490909100       2.79180658E-05   1.68706775    
 -0.327430397      0.377874792     -0.490909100       2.79180658E-05   1.68706775    
 -0.420626789      0.270320386     -0.409090906       4.75867228E-06   2.39161706    
 -0.327430397      0.377874792     -0.409090906       4.75867228E-06   2.39161706    
 -0.327430397      0.377874792     -0.490909100       4.75867228E-06   2.39161706    
 -0.420626789      0.270320386     -0.490909100       4.75867228E-06   2.39161706    
 -0.479746491      0.140866295     -0.409090906       1.73555909E-05   1.72302151    
 -0.420626789      0.270320386     -0.409090906       1.73555909E-05   1.72302151    
 -0.420626789      0.270320386     -0.490909100       1.73555909E-05   1.72302151    
 -0.479746491      0.140866295     -0.490909100       1.73555909E-05   1.72302151    
 -0.500000000       2.84000009E-16 -0.409090906       9.79556944E-07  -3.05307150    
 -0.479746491      0.140866295     -0.409090906       9.79556944E-07  -3.05307150    
 -0.479746491      0.140866295     -0.490909100       9.79556944E-07  -3.05307150    
 -0.500000000       2.84000009E-16 -0.490909100       9.79556944E-07  -3.05307150    
  0.479746491      0.140866295     -0.490909100       9.06288847E-07 -0.223590776    
  0.500000000       0.00000000     -0.490909100       9.06288847E-07 -0.223590776    
  0.500000000       0.00000000     -0.572727323       9.06288847E-07 -0.223590776    
  0.479746491      0.140866295     -0.572727323       9.06288847E-07 -0.223590776    
  0.420626789      0.270320386     -0.490909100       2.48073356E-05  -1.47585118    
  0.479746491      0.140866295     -0.490909100       2.48073356E-05  -1.47585118    
  0.479746491      0.140866295     -0.572727323       2.48073356E-05  -1.47585118    
  0.420626789      0.270320386     -0.572727323       2.48073356E-05  -1.47585118    
  0.327430397      0.377874792     -0.490909100       2.11399602E-05  -1.42667460    
  0.420626789      0.270320386     -0.490909100       2.11399602E-05  -1.42667460    
  0.420626789      0.270320386     -0.572727323       2.11399602E-05  -1.42667460    
  0.327430397      0.377874792     -0.572727323       2.11399602E-05  -1.42667460    
  0.207707494      0.454816014     -0.490909100       3.12431512E-05  -1.48287416    
  0.327430397      0.377874792     -0.490909100       3.12431512E-05  -1.48287416    
  0.327430397      0.377874792     -0.572727323       3.12431512E-05  -1.48287416    
  0.207707494      0.454816014     -0.572727323       3.12431512E-05  -1.48287416    
   7.11574182E-02  0.494910687     -0.490909100       5.16939326E-06   1.25207865    
  0.207707494      0.454816014     -0.490909100       5.16939326E-06   1.25207865    
  0.207707494      0.454816014     -0.572727323       5.16939326E-06   1.25207865    
   7.11574182E-02  0.494910687     -0.572727323       5.16939326E-06   1.25207865    
  -7.11574182E-02  0.494910687     -0.490909100       7.00010148E-08  -9.33303759E-02
   7.11574182E-02  0.494910687     -0.490909100       7.00010148E-08  -9.33303759E-02
   7.11574182E-02  0.494910687     -0.572727323       7.00010148E-08  -9.33303759E-02
  -7.11574182E-02  0.494910687     -0.572727323       7.00010148E-08  -9.33303759E-02
 -0.207707494      0.454816014     -0.490909100       5.39738812E-06  -1.83367026    
  -7.11574182E-02  0.494910687     -0.490909100       5.39738812E-06  -1.83367026    
  -7.11574182E-02  0.494910687     -0.572727323       5.39738812E-06  -1.83367026    
 -0.207707494      0.454816014     -0.572727323       5.39738812E-06  -1.83367026    
 -0.327430397      0.377874792     -0.490909100       2.99313579E-05   1.64959145    
 -0.207707494      0.454816014     -0.490909100       2.99313579E-05   1.64959145    
 -0.207707494      0.454816014     -0.572727323       2.99313579E-05   1.64959145    
 -0.327430397      0.377874792     -0.572727323       2.99313579E-05   1.64959145    
 -0.420626789      0.270320386     -0.490909100       1.73922399E-05   1.71695828    
 -0.327430397      0.377874792     -0.490909100       1.73922399E-05   1.71695828    
 -0.327430397      0.377874792     -0.572727323       1.73922399E-05   1.71695828    
 -0.420626789      0.270320386     -0.572727323       1.73922399E-05   1.71695828    
 -0.479746491      0.140866295     -0.490909100       1.44625001E-05   1.70357049    
 -0.420626789      0.270320386     -0.490909100       1.44625001E-05   1.70357049    
 -0.420626789      0.270320386     -0.572727323       1.44625001E-05   1.70357049    
 -0.479746491      0.140866295     -0.572727323       1.44625001E-05   1.70357049    
 -0.500000000       2.84000009E-16 -0.490909100       2.37245922E-06  -1.87465382    
 -0.479746491      0.140866295     -0.490909100       2.37245922E-06  -1.87465382    
 -0.479746491      0.140866295     -0.572727323       2.37245922E-06  -1.87465382    
 -0.500000000       2.84000009E-16 -0.572727323       2.37245922E-06  -1.87465382    
  0.479746491      0.140866295     -0.572727323       1.00092439E-06  0.868007898    
  0.500000000       0.00000000     -0.572727323       1.00092439E-06  0.868007898    
  0.500000000       0.00000000     -0.654545426       1.00092439E-06  0.868007898    
  0.479746491      0.140866295     -0.654545426       1.00092439E-06  0.868007898    
  0.420626789      0.270320386     -0.572727323       2.40054687E-05  -1.49901509    
  0.479746491      0.140866295     -0.572727323       2.40054687E-05  -1.49901509    
  0.479746491      0.140866295     -0.654545426       2.40054687E-05  -1.49901509    
  0.420626789      0.270320386     -0.654545426       2.40054687E-05  -1.49901509    
  0.327430397      0.377874792     -0.572727323       2.24839187E-05  -1.47177815    
  0.420626789      0.270320386     -0.572727323       2.24839187E-05  -1.47177815    
  0.420626789      0.270320386     -0.654545426       2.24839187E-05  -1.47177815    
  0.327430397      0.377874792     -0.654545426       2.24839187E-05  -1.47177815    
  0.207707494      0.454816014     -0.572727323       3.38683494E-05  -1.51146269    
  0.327430397      0.377874792     -0.572727323       3.38683494E-05  -1.51146269    
  0.327430397      0.377874792     -0.654545426       3.38683494E-05  -1.51146269    
  0.207707494      0.454816014     -0.654545426       3.38683494E-05  -1.51146269    
   7.11574182E-02  0.494910687     -0.572727323       4.37616109E-06   1.29639590    
  0.207707494      0.454816014     -0.572727323       4.37616109E-06   1.29639590    
  0.207707494      0.454816014     -0.654545426       4.37616109E-06   1.29639590    
   7.11574182E-02  0.494910687     -0.654545426       4.37616109E-06   1.29639590    
  -7.11574182E-02  0.494910687     -0.572727323       1.42720424E-07  -1.20534885    
   7.11574182E-02  0.494910687     -0.572727323       1.42720424E-07  -1.20534885    
   7.11574182E-02  0.494910687     -0.654545426       1.42720424E-07  -1.20534885    
  -7.11574182E-02  0.494910687     -0.654545426       1.42720424E-07  -1.20534885    
 -0.207707494      0.454816014     -0.572727323       4.84499014E-06  -1.78434694    
  -7.11574182E-02  0.494910687     -0.572727323       4.84499014E-06  -1.78434694    
  -7.11574182E-02  0.494910687     -0.654545426       4.84499014E-06  -1.78434694    
 -0.207707494      0.454816014     -0.654545426       4.84499014E-06  -1.78434694    
 -0.327430397      0.377874792     -0.572727323       3.24613720E-05   1.62395644    
 -0.207707494      0.454816014     -0.572727323       3.24613720E-05   1.62395644    
 -0.207707494      0.454816014     -0.654545426       3.24613720E-05   1.62395644    
 -0.327430397      0.377874792     -0.654545426       3.24613720E-05   1.62395644    
 -0.420626789      0.270320386     -0.572727323       1.89708408E-05   1.66870630    
 -0.327430397      0.377874792     -0.572727323       1.89708408E-05   1.66870630    
 -0.327430397      0.377874792     -0.654545426       1.89708408E-05   1.66870630    
 -0.420626789      0.270320386     -0.654545426       1.89708408E-05   1.66870630    
 -0.479746491      0.140866295     -0.572727323       1.46671591E-05   1.66651106    
 -0.420626789      0.270320386     -0.572727323       1.46671591E-05   1.66651106    
 -0.420626789      0.270320386     -0.654545426       1.46671591E-05   1.66651106    