 VARIABLES="X" "Y" "Z" "abs(p) (Pa)" "angle(p) (rad)"
ZONE N=   8448,E =    8022, F=FEPOINT, ET=QUADRILATERAL
  0.499932408       8.22369382E-03   0.00000000       1171.28870       2.02059364    
  0.500000000       0.00000000       0.00000000       1171.28870       2.02059364    
  0.500000000       0.00000000      -8.18181783E-02   1171.28870       2.02059364    
  0.499932408       8.22369382E-03  -8.18181783E-02   1171.28870       2.02059364    
  0.499729514       1.64451599E-02   0.00000000       1183.82886       2.01789260    
  0.499932408       8.22369382E-03   0.00000000       1183.82886       2.01789260    
  0.499932408       8.22369382E-03  -8.18181783E-02   1183.82886       2.01789260    
  0.499729514       1.64451599E-02  -8.18181783E-02   1183.82886       2.01789260    
  0.499391407       2.46621799E-02   0.00000000       1196.00830       2.01534390    
  0.499729514       1.64451599E-02   0.00000000       1196.00830       2.01534390    
  0.499729514       1.64451599E-02  -8.18181783E-02   1196.00830       2.01534390    
  0.499391407       2.46621799E-02  -8.18181783E-02   1196.00830       2.01534390    
  0.498918205       3.28725316E-02   0.00000000       1207.82104       2.01293731    
  0.499391407       2.46621799E-02   0.00000000       1207.82104       2.01293731    
  0.499391407       2.46621799E-02  -8.18181783E-02   1207.82104       2.01293731    
  0.498918205       3.28725316E-02  -8.18181783E-02   1207.82104       2.01293731    
  0.498310089       4.10739891E-02   0.00000000       1219.26794       2.01066685    
  0.498918205       3.28725316E-02   0.00000000       1219.26794       2.01066685    
  0.498918205       3.28725316E-02  -8.18181783E-02   1219.26794       2.01066685    
  0.498310089       4.10739891E-02  -8.18181783E-02   1219.26794       2.01066685    
  0.497567087       4.92643304E-02   0.00000000       1230.33691       2.00852489    
  0.498310089       4.10739891E-02   0.00000000       1230.33691       2.00852489    
  0.498310089       4.10739891E-02  -8.18181783E-02   1230.33691       2.00852489    
  0.497567087       4.92643304E-02  -8.18181783E-02   1230.33691       2.00852489    
  0.496689498       5.74413389E-02   0.00000000       1241.03625       2.00650620    
  0.497567087       4.92643304E-02   0.00000000       1241.03625       2.00650620    
  0.497567087       4.92643304E-02  -8.18181783E-02   1241.03625       2.00650620    
  0.496689498       5.74413389E-02  -8.18181783E-02   1241.03625       2.00650620    
  0.495677590       6.56028166E-02   0.00000000       1251.34570       2.00460410    
  0.496689498       5.74413389E-02   0.00000000       1251.34570       2.00460410    
  0.496689498       5.74413389E-02  -8.18181783E-02   1251.34570       2.00460410    
  0.495677590       6.56028166E-02  -8.18181783E-02   1251.34570       2.00460410    
  0.494531512       7.37465471E-02   0.00000000       1261.27161       2.00281501    
  0.495677590       6.56028166E-02   0.00000000       1261.27161       2.00281501    
  0.495677590       6.56028166E-02  -8.18181783E-02   1261.27161       2.00281501    
  0.494531512       7.37465471E-02  -8.18181783E-02   1261.27161       2.00281501    
  0.493251711       8.18703175E-02   0.00000000       1270.81348       2.00113201    
  0.494531512       7.37465471E-02   0.00000000       1270.81348       2.00113201    
  0.494531512       7.37465471E-02  -8.18181783E-02   1270.81348       2.00113201    
  0.493251711       8.18703175E-02  -8.18181783E-02   1270.81348       2.00113201    
  0.491838396       8.99719521E-02   0.00000000       1279.95605       1.99955165    
  0.493251711       8.18703175E-02   0.00000000       1279.95605       1.99955165    
  0.493251711       8.18703175E-02  -8.18181783E-02   1279.95605       1.99955165    
  0.491838396       8.99719521E-02  -8.18181783E-02   1279.95605       1.99955165    
  0.490292102       9.80492383E-02   0.00000000       1288.70508       1.99806917    
  0.491838396       8.99719521E-02   0.00000000       1288.70508       1.99806917    
  0.491838396       8.99719521E-02  -8.18181783E-02   1288.70508       1.99806917    
  0.490292102       9.80492383E-02  -8.18181783E-02   1288.70508       1.99806917    
  0.488613099      0.106100000       0.00000000       1297.05359       1.99668026    
  0.490292102       9.80492383E-02   0.00000000       1297.05359       1.99668026    
  0.490292102       9.80492383E-02  -8.18181783E-02   1297.05359       1.99668026    
  0.488613099      0.106100000      -8.18181783E-02   1297.05359       1.99668026    
  0.486802012      0.114122100       0.00000000       1304.99854       1.99538434    
  0.488613099      0.106100000       0.00000000       1304.99854       1.99538434    
  0.488613099      0.106100000      -8.18181783E-02   1304.99854       1.99538434    
  0.486802012      0.114122100      -8.18181783E-02   1304.99854       1.99538434    
  0.484859109      0.122113198       0.00000000       1312.53479       1.99417400    
  0.486802012      0.114122100       0.00000000       1312.53479       1.99417400    
  0.486802012      0.114122100      -8.18181783E-02   1312.53479       1.99417400    
  0.484859109      0.122113198      -8.18181783E-02   1312.53479       1.99417400    
  0.482785106      0.130071402       0.00000000       1319.67322       1.99304497    
  0.484859109      0.122113198       0.00000000       1319.67322       1.99304497    
  0.484859109      0.122113198      -8.18181783E-02   1319.67322       1.99304497    
  0.482785106      0.130071402      -8.18181783E-02   1319.67322       1.99304497    
  0.480580389      0.137994304       0.00000000       1326.39099       1.99200118    
  0.482785106      0.130071402       0.00000000       1326.39099       1.99200118    
  0.482785106      0.130071402      -8.18181783E-02   1326.39099       1.99200118    
  0.480580389      0.137994304      -8.18181783E-02   1326.39099       1.99200118    
  0.478245795      0.145879999       0.00000000       1332.70105       1.99103355    
  0.480580389      0.137994304       0.00000000       1332.70105       1.99103355    
  0.480580389      0.137994304      -8.18181783E-02   1332.70105       1.99103355    
  0.478245795      0.145879999      -8.18181783E-02   1332.70105       1.99103355    
  0.475781709      0.153726101       0.00000000       1338.59167       1.99014056    
  0.478245795      0.145879999       0.00000000       1338.59167       1.99014056    
  0.478245795      0.145879999      -8.18181783E-02   1338.59167       1.99014056    
  0.475781709      0.153726101      -8.18181783E-02   1338.59167       1.99014056    
  0.473188996      0.161530703       0.00000000       1344.06885       1.98932076    
  0.475781709      0.153726101       0.00000000       1344.06885       1.98932076    
  0.475781709      0.153726101      -8.18181783E-02   1344.06885       1.98932076    
  0.473188996      0.161530703      -8.18181783E-02   1344.06885       1.98932076    
  0.470468193      0.169291601       0.00000000       1349.12671       1.98857343    
  0.473188996      0.161530703       0.00000000       1349.12671       1.98857343    
  0.473188996      0.161530703      -8.18181783E-02   1349.12671       1.98857343    
  0.470468193      0.169291601      -8.18181783E-02   1349.12671       1.98857343    
  0.467620194      0.177006602       0.00000000       1353.75964       1.98789597    
  0.470468193      0.169291601       0.00000000       1353.75964       1.98789597    
  0.470468193      0.169291601      -8.18181783E-02   1353.75964       1.98789597    
  0.467620194      0.177006602      -8.18181783E-02   1353.75964       1.98789597    
  0.464645714      0.184673801       0.00000000       1357.97461       1.98728442    
  0.467620194      0.177006602       0.00000000       1357.97461       1.98728442    
  0.467620194      0.177006602      -8.18181783E-02   1357.97461       1.98728442    
  0.464645714      0.184673801      -8.18181783E-02   1357.97461       1.98728442    
  0.461545408      0.192291096       0.00000000       1361.75977       1.98674166    
  0.464645714      0.184673801       0.00000000       1361.75977       1.98674166    
  0.464645714      0.184673801      -8.18181783E-02   1361.75977       1.98674166    
  0.461545408      0.192291096      -8.18181783E-02   1361.75977       1.98674166    
  0.458320290      0.199856296       0.00000000       1365.11511       1.98626399    
  0.461545408      0.192291096       0.00000000       1365.11511       1.98626399    
  0.461545408      0.192291096      -8.18181783E-02   1365.11511       1.98626399    
  0.458320290      0.199856296      -8.18181783E-02   1365.11511       1.98626399    
  0.454971194      0.207367405       0.00000000       1368.05713       1.98584580    
  0.458320290      0.199856296       0.00000000       1368.05713       1.98584580    
  0.458320290      0.199856296      -8.18181783E-02   1368.05713       1.98584580    
  0.454971194      0.207367405      -8.18181783E-02   1368.05713       1.98584580    
  0.451498985      0.214822397       0.00000000       1370.56677       1.98549414    
  0.454971194      0.207367405       0.00000000       1370.56677       1.98549414    
  0.454971194      0.207367405      -8.18181783E-02   1370.56677       1.98549414    
  0.451498985      0.214822397      -8.18181783E-02   1370.56677       1.98549414    
  0.447904587      0.222219393       0.00000000       1372.64319       1.98520219    
  0.451498985      0.214822397       0.00000000       1372.64319       1.98520219    
  0.451498985      0.214822397      -8.18181783E-02   1372.64319       1.98520219    
  0.447904587      0.222219393      -8.18181783E-02   1372.64319       1.98520219    
  0.444189101      0.229556203       0.00000000       1374.28638       1.98497427    
  0.447904587      0.222219393       0.00000000       1374.28638       1.98497427    
  0.447904587      0.222219393      -8.18181783E-02   1374.28638       1.98497427    
  0.444189101      0.229556203      -8.18181783E-02   1374.28638       1.98497427    
  0.440353394      0.236830905       0.00000000       1375.51294       1.98480320    
  0.444189101      0.229556203       0.00000000       1375.51294       1.98480320    
  0.444189101      0.229556203      -8.18181783E-02   1375.51294       1.98480320    
  0.440353394      0.236830905      -8.18181783E-02   1375.51294       1.98480320    
  0.436398596      0.244041502       0.00000000       1376.30237       1.98469353    
  0.440353394      0.236830905       0.00000000       1376.30237       1.98469353    
  0.440353394      0.236830905      -8.18181783E-02   1376.30237       1.98469353    
  0.436398596      0.244041502      -8.18181783E-02   1376.30237       1.98469353    
  0.432325810      0.251186103       0.00000000       1376.65955       1.98464501    
  0.436398596      0.244041502       0.00000000       1376.65955       1.98464501    
  0.436398596      0.244041502      -8.18181783E-02   1376.65955       1.98464501    
  0.432325810      0.251186103      -8.18181783E-02   1376.65955       1.98464501    
  0.428135902      0.258262813       0.00000000       1376.58643       1.98465502    
  0.432325810      0.251186103       0.00000000       1376.58643       1.98465502    
  0.432325810      0.251186103      -8.18181783E-02   1376.58643       1.98465502    
  0.428135902      0.258262813      -8.18181783E-02   1376.58643       1.98465502    
  0.423830211      0.265269488       0.00000000       1376.08606       1.98472285    
  0.428135902      0.258262813       0.00000000       1376.08606       1.98472285    
  0.428135902      0.258262813      -8.18181783E-02   1376.08606       1.98472285    
  0.423830211      0.265269488      -8.18181783E-02   1376.08606       1.98472285    
  0.419409901      0.272204489       0.00000000       1375.15259       1.98485219    
  0.423830211      0.265269488       0.00000000       1375.15259       1.98485219    
  0.423830211      0.265269488      -8.18181783E-02   1375.15259       1.98485219    
  0.419409901      0.272204489      -8.18181783E-02   1375.15259       1.98485219    
  0.414876103      0.279065907       0.00000000       1373.78992       1.98504388    
  0.419409901      0.272204489       0.00000000       1373.78992       1.98504388    
  0.419409901      0.272204489      -8.18181783E-02   1373.78992       1.98504388    
  0.414876103      0.279065907      -8.18181783E-02   1373.78992       1.98504388    
  0.410230100      0.285851806       0.00000000       1371.99939       1.98529291    
  0.414876103      0.279065907       0.00000000       1371.99939       1.98529291    
  0.414876103      0.279065907      -8.18181783E-02   1371.99939       1.98529291    
  0.410230100      0.285851806      -8.18181783E-02   1371.99939       1.98529291    
  0.405473113      0.292560399       0.00000000       1369.78015       1.98560297    
  0.410230100      0.285851806       0.00000000       1369.78015       1.98560297    
  0.410230100      0.285851806      -8.18181783E-02   1369.78015       1.98560297    
  0.405473113      0.292560399      -8.18181783E-02   1369.78015       1.98560297    
  0.400606394      0.299189687       0.00000000       1367.12512       1.98597705    
  0.405473113      0.292560399       0.00000000       1367.12512       1.98597705    
  0.405473113      0.292560399      -8.18181783E-02   1367.12512       1.98597705    
  0.400606394      0.299189687      -8.18181783E-02   1367.12512       1.98597705    
  0.395631313      0.305738211       0.00000000       1364.04932       1.98641455    
  0.400606394      0.299189687       0.00000000       1364.04932       1.98641455    
  0.400606394      0.299189687      -8.18181783E-02   1364.04932       1.98641455    
  0.395631313      0.305738211      -8.18181783E-02   1364.04932       1.98641455    
  0.390549213      0.312204003       0.00000000       1360.54565       1.98691654    
  0.395631313      0.305738211       0.00000000       1360.54565       1.98691654    
  0.395631313      0.305738211      -8.18181783E-02   1360.54565       1.98691654    
  0.390549213      0.312204003      -8.18181783E-02   1360.54565       1.98691654    
  0.385361403      0.318585187       0.00000000       1356.61572       1.98748028    
  0.390549213      0.312204003       0.00000000       1356.61572       1.98748028    
  0.390549213      0.312204003      -8.18181783E-02   1356.61572       1.98748028    
  0.385361403      0.318585187      -8.18181783E-02   1356.61572       1.98748028    
  0.380069405      0.324880302       0.00000000       1352.26184       1.98811448    
  0.385361403      0.318585187       0.00000000       1352.26184       1.98811448    
  0.385361403      0.318585187      -8.18181783E-02   1352.26184       1.98811448    
  0.380069405      0.324880302      -8.18181783E-02   1352.26184       1.98811448    
  0.374674588      0.331087500       0.00000000       1347.48840       1.98881483    
  0.380069405      0.324880302       0.00000000       1347.48840       1.98881483    
  0.380069405      0.324880302      -8.18181783E-02   1347.48840       1.98881483    
  0.374674588      0.331087500      -8.18181783E-02   1347.48840       1.98881483    
  0.369178414      0.337205201       0.00000000       1342.29065       1.98958528    
  0.374674588      0.331087500       0.00000000       1342.29065       1.98958528    
  0.374674588      0.331087500      -8.18181783E-02   1342.29065       1.98958528    
  0.369178414      0.337205201      -8.18181783E-02   1342.29065       1.98958528    
  0.363582313      0.343231589       0.00000000       1336.67432       1.99042988    
  0.369178414      0.337205201       0.00000000       1336.67432       1.99042988    
  0.369178414      0.337205201      -8.18181783E-02   1336.67432       1.99042988    
  0.363582313      0.343231589      -8.18181783E-02   1336.67432       1.99042988    
  0.357887805      0.349165112       0.00000000       1330.64221       1.99134660    
  0.363582313      0.343231589       0.00000000       1330.64221       1.99134660    
  0.363582313      0.343231589      -8.18181783E-02   1330.64221       1.99134660    
  0.357887805      0.349165112      -8.18181783E-02   1330.64221       1.99134660    
  0.352096587      0.355004191       0.00000000       1324.19653       1.99234021    
  0.357887805      0.349165112       0.00000000       1324.19653       1.99234021    
  0.357887805      0.349165112      -8.18181783E-02   1324.19653       1.99234021    
  0.352096587      0.355004191      -8.18181783E-02   1324.19653       1.99234021    
  0.346210092      0.360747308       0.00000000       1317.33679       1.99341404    
  0.352096587      0.355004191       0.00000000       1317.33679       1.99341404    
  0.352096587      0.355004191      -8.18181783E-02   1317.33679       1.99341404    
  0.346210092      0.360747308      -8.18181783E-02   1317.33679       1.99341404    
  0.340229899      0.366392702       0.00000000       1310.07031       1.99456882    
  0.346210092      0.360747308       0.00000000       1310.07031       1.99456882    
  0.346210092      0.360747308      -8.18181783E-02   1310.07031       1.99456882    
  0.340229899      0.366392702      -8.18181783E-02   1310.07031       1.99456882    
  0.334157586      0.371939093       0.00000000       1302.39331       1.99580646    
  0.340229899      0.366392702       0.00000000       1302.39331       1.99580646    
  0.340229899      0.366392702      -8.18181783E-02   1302.39331       1.99580646    
  0.334157586      0.371939093      -8.18181783E-02   1302.39331       1.99580646    
  0.327995002      0.377384812       0.00000000       1294.30994       1.99713480    
  0.334157586      0.371939093       0.00000000       1294.30994       1.99713480    
  0.334157586      0.371939093      -8.18181783E-02   1294.30994       1.99713480    
  0.327995002      0.377384812      -8.18181783E-02   1294.30994       1.99713480    
  0.321743697      0.382728398       0.00000000       1285.83301       1.99855292    
  0.327995002      0.377384812       0.00000000       1285.83301       1.99855292    
  0.327995002      0.377384812      -8.18181783E-02   1285.83301       1.99855292    
  0.321743697      0.382728398      -8.18181783E-02   1285.83301       1.99855292    
  0.315405309      0.387968510       0.00000000       1276.95447       2.00006652    
  0.321743697      0.382728398       0.00000000       1276.95447       2.00006652    
  0.321743697      0.382728398      -8.18181783E-02   1276.95447       2.00006652    
  0.315405309      0.387968510      -8.18181783E-02   1276.95447       2.00006652    
  0.308981508      0.393103600       0.00000000       1267.67920       2.00168061    
  0.315405309      0.387968510       0.00000000       1267.67920       2.00168061    
  0.315405309      0.387968510      -8.18181783E-02   1267.67920       2.00168061    
  0.308981508      0.393103600      -8.18181783E-02   1267.67920       2.00168061    
  0.302474201      0.398132294       0.00000000       1258.01050       2.00339699    
  0.308981508      0.393103600       0.00000000       1258.01050       2.00339699    
  0.308981508      0.393103600      -8.18181783E-02   1258.01050       2.00339699    
  0.302474201      0.398132294      -8.18181783E-02   1258.01050       2.00339699    
  0.295885086      0.403053403       0.00000000       1247.95129       2.00522494    
  0.302474201      0.398132294       0.00000000       1247.95129       2.00522494    
  0.302474201      0.398132294      -8.18181783E-02   1247.95129       2.00522494    
  0.295885086      0.403053403      -8.18181783E-02   1247.95129       2.00522494    
  0.289215893      0.407865405       0.00000000       1237.51404       2.00716519    
  0.295885086      0.403053403       0.00000000       1237.51404       2.00716519    
  0.295885086      0.403053403      -8.18181783E-02   1237.51404       2.00716519    
  0.289215893      0.407865405      -8.18181783E-02   1237.51404       2.00716519    
  0.282468408      0.412567109       0.00000000       1226.69385       2.00922298    
  0.289215893      0.407865405       0.00000000       1226.69385       2.00922298    
  0.289215893      0.407865405      -8.18181783E-02   1226.69385       2.00922298    
  0.282468408      0.412567109      -8.18181783E-02   1226.69385       2.00922298    
  0.275644600      0.417157114       0.00000000       1215.49365       2.01140881    
  0.282468408      0.412567109       0.00000000       1215.49365       2.01140881    
  0.282468408      0.412567109      -8.18181783E-02   1215.49365       2.01140881    
  0.275644600      0.417157114      -8.18181783E-02   1215.49365       2.01140881    
  0.268746108      0.421634287       0.00000000       1203.92834       2.01372218    
  0.275644600      0.417157114       0.00000000       1203.92834       2.01372218    
  0.275644600      0.417157114      -8.18181783E-02   1203.92834       2.01372218    
  0.268746108      0.421634287      -8.18181783E-02   1203.92834       2.01372218    
  0.261774987      0.425997496       0.00000000       1191.99072       2.01617599    
  0.268746108      0.421634287       0.00000000       1191.99072       2.01617599    
  0.268746108      0.421634287      -8.18181783E-02   1191.99072       2.01617599    
  0.261774987      0.425997496      -8.18181783E-02   1191.99072       2.01617599    
  0.254733086      0.430245399       0.00000000       1179.69250       2.01877499    
  0.261774987      0.425997496       0.00000000       1179.69250       2.01877499    
  0.261774987      0.425997496      -8.18181783E-02   1179.69250       2.01877499    
  0.254733086      0.430245399      -8.18181783E-02   1179.69250       2.01877499    
  0.247622207      0.434376895       0.00000000       1167.03613       2.02152658    
  0.254733086      0.430245399       0.00000000       1167.03613       2.02152658    
  0.254733086      0.430245399      -8.18181783E-02   1167.03613       2.02152658    
  0.247622207      0.434376895      -8.18181783E-02   1167.03613       2.02152658    
  0.240444303      0.438390911       0.00000000       1154.02356       2.02444029    
  0.247622207      0.434376895       0.00000000       1154.02356       2.02444029    
  0.247622207      0.434376895      -8.18181783E-02   1154.02356       2.02444029    
  0.240444303      0.438390911      -8.18181783E-02   1154.02356       2.02444029    
  0.233201399      0.442286193       0.00000000       1140.67114       2.02752352    
  0.240444303      0.438390911       0.00000000       1140.67114       2.02752352    
  0.240444303      0.438390911      -8.18181783E-02   1140.67114       2.02752352    
  0.233201399      0.442286193      -8.18181783E-02   1140.67114       2.02752352    
  0.225895405      0.446061909       0.00000000       1126.97327       2.03078604    
  0.233201399      0.442286193       0.00000000       1126.97327       2.03078604    
  0.233201399      0.442286193      -8.18181783E-02   1126.97327       2.03078604    
  0.225895405      0.446061909      -8.18181783E-02   1126.97327       2.03078604    
  0.218528301      0.449716985       0.00000000       1112.94287       2.03424120    
  0.225895405      0.446061909       0.00000000       1112.94287       2.03424120    
  0.225895405      0.446061909      -8.18181783E-02   1112.94287       2.03424120    
  0.218528301      0.449716985      -8.18181783E-02   1112.94287       2.03424120    
  0.211102098      0.453250408       0.00000000       1098.57959       2.03789663    
  0.218528301      0.449716985       0.00000000       1098.57959       2.03789663    
  0.218528301      0.449716985      -8.18181783E-02   1098.57959       2.03789663    
  0.211102098      0.453250408      -8.18181783E-02   1098.57959       2.03789663    
  0.203618705      0.456661195       0.00000000       1083.90161       2.04176497    
  0.211102098      0.453250408       0.00000000       1083.90161       2.04176497    
  0.211102098      0.453250408      -8.18181783E-02   1083.90161       2.04176497    
  0.203618705      0.456661195      -8.18181783E-02   1083.90161       2.04176497    
  0.196080297      0.459948391       0.00000000       1068.90076       2.04586196    
  0.203618705      0.456661195       0.00000000       1068.90076       2.04586196    
  0.203618705      0.456661195      -8.18181783E-02   1068.90076       2.04586196    
  0.196080297      0.459948391      -8.18181783E-02   1068.90076       2.04586196    
  0.188488796      0.463111192       0.00000000       1053.59204       2.05019855    
  0.196080297      0.459948391       0.00000000       1053.59204       2.05019855    
  0.196080297      0.459948391      -8.18181783E-02   1053.59204       2.05019855    
  0.188488796      0.463111192      -8.18181783E-02   1053.59204       2.05019855    
  0.180846393      0.466148704       0.00000000       1037.98108       2.05479360    
  0.188488796      0.463111192       0.00000000       1037.98108       2.05479360    
  0.188488796      0.463111192      -8.18181783E-02   1037.98108       2.05479360    
  0.180846393      0.466148704      -8.18181783E-02   1037.98108       2.05479360    
  0.173154995      0.469060093       0.00000000       1022.07806       2.05966306    
  0.180846393      0.466148704       0.00000000       1022.07806       2.05966306    
  0.180846393      0.466148704      -8.18181783E-02   1022.07806       2.05966306    
  0.173154995      0.469060093      -8.18181783E-02   1022.07806       2.05966306    
  0.165416703      0.471844614       0.00000000       1005.89240       2.06481838    
  0.173154995      0.469060093       0.00000000       1005.89240       2.06481838    
  0.173154995      0.469060093      -8.18181783E-02   1005.89240       2.06481838    
  0.165416703      0.471844614      -8.18181783E-02   1005.89240       2.06481838    
  0.157633796      0.474501401       0.00000000       989.426575       2.07028818    
  0.165416703      0.471844614       0.00000000       989.426575       2.07028818    
  0.165416703      0.471844614      -8.18181783E-02   989.426575       2.07028818    
  0.157633796      0.474501401      -8.18181783E-02   989.426575       2.07028818    
  0.149808094      0.477029890       0.00000000       972.693481       2.07608700    
  0.157633796      0.474501401       0.00000000       972.693481       2.07608700    
  0.157633796      0.474501401      -8.18181783E-02   972.693481       2.07608700    
  0.149808094      0.477029890      -8.18181783E-02   972.693481       2.07608700    
  0.141941994      0.479429305       0.00000000       955.703064       2.08224010    
  0.149808094      0.477029890       0.00000000       955.703064       2.08224010    
  0.149808094      0.477029890      -8.18181783E-02   955.703064       2.08224010    
  0.141941994      0.479429305      -8.18181783E-02   955.703064       2.08224010    
  0.134037405      0.481698990       0.00000000       938.467163       2.08877158    
  0.141941994      0.479429305       0.00000000       938.467163       2.08877158    
  0.141941994      0.479429305      -8.18181783E-02   938.467163       2.08877158    
  0.134037405      0.481698990      -8.18181783E-02   938.467163       2.08877158    
  0.126096606      0.483838499       0.00000000       920.991455       2.09571028    
  0.134037405      0.481698990       0.00000000       920.991455       2.09571028    
  0.134037405      0.481698990      -8.18181783E-02   920.991455       2.09571028    
  0.126096606      0.483838499      -8.18181783E-02   920.991455       2.09571028    
  0.118121602      0.485846996       0.00000000       903.290833       2.10308385    
  0.126096606      0.483838499       0.00000000       903.290833       2.10308385    
  0.126096606      0.483838499      -8.18181783E-02   903.290833       2.10308385    
  0.118121602      0.485846996      -8.18181783E-02   903.290833       2.10308385    
  0.110114798      0.487724006       0.00000000       885.375122       2.11092091    
  0.118121602      0.485846996       0.00000000       885.375122       2.11092091    
  0.118121602      0.485846996      -8.18181783E-02   885.375122       2.11092091    
  0.110114798      0.487724006      -8.18181783E-02   885.375122       2.11092091    
  0.102078103      0.489469200       0.00000000       867.256958       2.11926866    
  0.110114798      0.487724006       0.00000000       867.256958       2.11926866    
  0.110114798      0.487724006      -8.18181783E-02   867.256958       2.11926866    
  0.102078103      0.489469200      -8.18181783E-02   867.256958       2.11926866    
   9.40137729E-02  0.491081893       0.00000000       848.945618       2.12815642    
  0.102078103      0.489469200       0.00000000       848.945618       2.12815642    
  0.102078103      0.489469200      -8.18181783E-02   848.945618       2.12815642    
   9.40137729E-02  0.491081893      -8.18181783E-02   848.945618       2.12815642    
   8.59240368E-02  0.492561698       0.00000000       830.473694       2.13762331    
   9.40137729E-02  0.491081893       0.00000000       830.473694       2.13762331    
   9.40137729E-02  0.491081893      -8.18181783E-02   830.473694       2.13762331    
   8.59240368E-02  0.492561698      -8.18181783E-02   830.473694       2.13762331    
   7.78110623E-02  0.493908286       0.00000000       811.834290       2.14771962    
   8.59240368E-02  0.492561698       0.00000000       811.834290       2.14771962    
   8.59240368E-02  0.492561698      -8.18181783E-02   811.834290       2.14771962    
   7.78110623E-02  0.493908286      -8.18181783E-02   811.834290       2.14771962    
   6.96770400E-02  0.495121300       0.00000000       793.059326       2.15849662    
   7.78110623E-02  0.493908286       0.00000000       793.059326       2.15849662    
   7.78110623E-02  0.493908286      -8.18181783E-02   793.059326       2.15849662    