 VARIABLES="X" "Y" "Z" "abs(p) (Pa)" "angle(p) (rad)"
ZONE N=    528,E =     462, F=FEPOINT, ET=QUADRILATERAL
  0.479746491      0.140866295       0.00000000       622.238098      -1.52178943    
  0.500000000       0.00000000       0.00000000       622.238098      -1.52178943    
  0.500000000       0.00000000      -8.18181783E-02   622.238098      -1.52178943    
  0.479746491      0.140866295      -8.18181783E-02   622.238098      -1.52178943    
  0.420626789      0.270320386       0.00000000       571.827698      -1.52178931    
  0.479746491      0.140866295       0.00000000       571.827698      -1.52178931    
  0.479746491      0.140866295      -8.18181783E-02   571.827698      -1.52178931    
  0.420626789      0.270320386      -8.18181783E-02   571.827698      -1.52178931    
  0.327430397      0.377874792       0.00000000       475.091675      -1.52178931    
  0.420626789      0.270320386       0.00000000       475.091675      -1.52178931    
  0.420626789      0.270320386      -8.18181783E-02   475.091675      -1.52178931    
  0.327430397      0.377874792      -8.18181783E-02   475.091675      -1.52178931    
  0.207707494      0.454816014       0.00000000       339.866516      -1.52178943    
  0.327430397      0.377874792       0.00000000       339.866516      -1.52178943    
  0.327430397      0.377874792      -8.18181783E-02   339.866516      -1.52178943    
  0.207707494      0.454816014      -8.18181783E-02   339.866516      -1.52178943    
   7.11574182E-02  0.494910687       0.00000000       177.107285      -1.52178931    
  0.207707494      0.454816014       0.00000000       177.107285      -1.52178931    
  0.207707494      0.454816014      -8.18181783E-02   177.107285      -1.52178931    
   7.11574182E-02  0.494910687      -8.18181783E-02   177.107285      -1.52178931    
  -7.11574182E-02  0.494910687       0.00000000       3.12913835E-05   2.23854661    
   7.11574182E-02  0.494910687       0.00000000       3.12913835E-05   2.23854661    
   7.11574182E-02  0.494910687      -8.18181783E-02   3.12913835E-05   2.23854661    
  -7.11574182E-02  0.494910687      -8.18181783E-02   3.12913835E-05   2.23854661    
 -0.207707494      0.454816014       0.00000000       177.107330       1.61980343    
  -7.11574182E-02  0.494910687       0.00000000       177.107330       1.61980343    
  -7.11574182E-02  0.494910687      -8.18181783E-02   177.107330       1.61980343    
 -0.207707494      0.454816014      -8.18181783E-02   177.107330       1.61980343    
 -0.327430397      0.377874792       0.00000000       339.866547       1.61980343    
 -0.207707494      0.454816014       0.00000000       339.866547       1.61980343    
 -0.207707494      0.454816014      -8.18181783E-02   339.866547       1.61980343    
 -0.327430397      0.377874792      -8.18181783E-02   339.866547       1.61980343    
 -0.420626789      0.270320386       0.00000000       475.091766       1.61980343    
 -0.327430397      0.377874792       0.00000000       475.091766       1.61980343    
 -0.327430397      0.377874792      -8.18181783E-02   475.091766       1.61980343    
 -0.420626789      0.270320386      -8.18181783E-02   475.091766       1.61980343    
 -0.479746491      0.140866295       0.00000000       571.827942       1.61980331    
 -0.420626789      0.270320386       0.00000000       571.827942       1.61980331    
 -0.420626789      0.270320386      -8.18181783E-02   571.827942       1.61980331    
 -0.479746491      0.140866295      -8.18181783E-02   571.827942       1.61980331    
 -0.500000000       2.84000009E-16   0.00000000       622.238098       1.61980331    
 -0.479746491      0.140866295       0.00000000       622.238098       1.61980331    
 -0.479746491      0.140866295      -8.18181783E-02   622.238098       1.61980331    
 -0.500000000       2.84000009E-16  -8.18181783E-02   622.238098       1.61980331    
  0.479746491      0.140866295      -8.18181783E-02   616.979065      -1.52187908    
  0.500000000       0.00000000      -8.18181783E-02   616.979065      -1.52187908    
  0.500000000       0.00000000     -0.163636401       616.979065      -1.52187908    
  0.479746491      0.140866295     -0.163636401       616.979065      -1.52187908    
  0.420626789      0.270320386      -8.18181783E-02   566.994690      -1.52187908    
  0.479746491      0.140866295      -8.18181783E-02   566.994690      -1.52187908    
  0.479746491      0.140866295     -0.163636401       566.994690      -1.52187908    
  0.420626789      0.270320386     -0.163636401       566.994690      -1.52187908    
  0.327430397      0.377874792      -8.18181783E-02   471.076294      -1.52187908    
  0.420626789      0.270320386      -8.18181783E-02   471.076294      -1.52187908    
  0.420626789      0.270320386     -0.163636401       471.076294      -1.52187908    
  0.327430397      0.377874792     -0.163636401       471.076294      -1.52187908    
  0.207707494      0.454816014      -8.18181783E-02   336.994171      -1.52187908    
  0.327430397      0.377874792      -8.18181783E-02   336.994171      -1.52187908    
  0.327430397      0.377874792     -0.163636401       336.994171      -1.52187908    
  0.207707494      0.454816014     -0.163636401       336.994171      -1.52187908    
   7.11574182E-02  0.494910687      -8.18181783E-02   175.610413      -1.52187908    
  0.207707494      0.454816014      -8.18181783E-02   175.610413      -1.52187908    
  0.207707494      0.454816014     -0.163636401       175.610413      -1.52187908    
   7.11574182E-02  0.494910687     -0.163636401       175.610413      -1.52187908    
  -7.11574182E-02  0.494910687      -8.18181783E-02   2.88235624E-05   2.43286180    
   7.11574182E-02  0.494910687      -8.18181783E-02   2.88235624E-05   2.43286180    
   7.11574182E-02  0.494910687     -0.163636401       2.88235624E-05   2.43286180    
  -7.11574182E-02  0.494910687     -0.163636401       2.88235624E-05   2.43286180    
 -0.207707494      0.454816014      -8.18181783E-02   175.610428       1.61971378    
  -7.11574182E-02  0.494910687      -8.18181783E-02   175.610428       1.61971378    
  -7.11574182E-02  0.494910687     -0.163636401       175.610428       1.61971378    
 -0.207707494      0.454816014     -0.163636401       175.610428       1.61971378    
 -0.327430397      0.377874792      -8.18181783E-02   336.994202       1.61971366    
 -0.207707494      0.454816014      -8.18181783E-02   336.994202       1.61971366    
 -0.207707494      0.454816014     -0.163636401       336.994202       1.61971366    
 -0.327430397      0.377874792     -0.163636401       336.994202       1.61971366    
 -0.420626789      0.270320386      -8.18181783E-02   471.076294       1.61971366    
 -0.327430397      0.377874792      -8.18181783E-02   471.076294       1.61971366    
 -0.327430397      0.377874792     -0.163636401       471.076294       1.61971366    
 -0.420626789      0.270320386     -0.163636401       471.076294       1.61971366    
 -0.479746491      0.140866295      -8.18181783E-02   566.994690       1.61971366    
 -0.420626789      0.270320386      -8.18181783E-02   566.994690       1.61971366    
 -0.420626789      0.270320386     -0.163636401       566.994690       1.61971366    
 -0.479746491      0.140866295     -0.163636401       566.994690       1.61971366    
 -0.500000000       2.84000009E-16  -8.18181783E-02   616.979126       1.61971366    
 -0.479746491      0.140866295      -8.18181783E-02   616.979126       1.61971366    
 -0.479746491      0.140866295     -0.163636401       616.979126       1.61971366    
 -0.500000000       2.84000009E-16 -0.163636401       616.979126       1.61971366    
  0.479746491      0.140866295     -0.163636401       611.106506      -1.52194417    
  0.500000000       0.00000000     -0.163636401       611.106506      -1.52194417    
  0.500000000       0.00000000     -0.245454505       611.106506      -1.52194417    
  0.479746491      0.140866295     -0.245454505       611.106506      -1.52194417    
  0.420626789      0.270320386     -0.163636401       561.598267      -1.52194417    
  0.479746491      0.140866295     -0.163636401       561.598267      -1.52194417    
  0.479746491      0.140866295     -0.245454505       561.598267      -1.52194417    
  0.420626789      0.270320386     -0.245454505       561.598267      -1.52194417    
  0.327430397      0.377874792     -0.163636401       466.592560      -1.52194417    
  0.420626789      0.270320386     -0.163636401       466.592560      -1.52194417    
  0.420626789      0.270320386     -0.245454505       466.592560      -1.52194417    
  0.327430397      0.377874792     -0.245454505       466.592560      -1.52194417    
  0.207707494      0.454816014     -0.163636401       333.786499      -1.52194417    
  0.327430397      0.377874792     -0.163636401       333.786499      -1.52194417    
  0.327430397      0.377874792     -0.245454505       333.786499      -1.52194417    
  0.207707494      0.454816014     -0.245454505       333.786499      -1.52194417    
   7.11574182E-02  0.494910687     -0.163636401       173.938919      -1.52194417    
  0.207707494      0.454816014     -0.163636401       173.938919      -1.52194417    
  0.207707494      0.454816014     -0.245454505       173.938919      -1.52194417    
   7.11574182E-02  0.494910687     -0.245454505       173.938919      -1.52194417    
  -7.11574182E-02  0.494910687     -0.163636401       2.95929967E-05   2.06877041    
   7.11574182E-02  0.494910687     -0.163636401       2.95929967E-05   2.06877041    
   7.11574182E-02  0.494910687     -0.245454505       2.95929967E-05   2.06877041    
  -7.11574182E-02  0.494910687     -0.245454505       2.95929967E-05   2.06877041    
 -0.207707494      0.454816014     -0.163636401       173.938950       1.61964869    
  -7.11574182E-02  0.494910687     -0.163636401       173.938950       1.61964869    
  -7.11574182E-02  0.494910687     -0.245454505       173.938950       1.61964869    
 -0.207707494      0.454816014     -0.245454505       173.938950       1.61964869    
 -0.327430397      0.377874792     -0.163636401       333.786469       1.61964858    
 -0.207707494      0.454816014     -0.163636401       333.786469       1.61964858    
 -0.207707494      0.454816014     -0.245454505       333.786469       1.61964858    
 -0.327430397      0.377874792     -0.245454505       333.786469       1.61964858    
 -0.420626789      0.270320386     -0.163636401       466.592621       1.61964858    
 -0.327430397      0.377874792     -0.163636401       466.592621       1.61964858    
 -0.327430397      0.377874792     -0.245454505       466.592621       1.61964858    
 -0.420626789      0.270320386     -0.245454505       466.592621       1.61964858    
 -0.479746491      0.140866295     -0.163636401       561.598511       1.61964846    
 -0.420626789      0.270320386     -0.163636401       561.598511       1.61964846    
 -0.420626789      0.270320386     -0.245454505       561.598511       1.61964846    
 -0.479746491      0.140866295     -0.245454505       561.598511       1.61964846    
 -0.500000000       2.84000009E-16 -0.163636401       611.106506       1.61964858    
 -0.479746491      0.140866295     -0.163636401       611.106506       1.61964858    
 -0.479746491      0.140866295     -0.245454505       611.106506       1.61964858    
 -0.500000000       2.84000009E-16 -0.245454505       611.106506       1.61964858    
  0.479746491      0.140866295     -0.245454505       604.783020      -1.52197671    
  0.500000000       0.00000000     -0.245454505       604.783020      -1.52197671    
  0.500000000       0.00000000     -0.327272713       604.783020      -1.52197671    
  0.479746491      0.140866295     -0.327272713       604.783020      -1.52197671    
  0.420626789      0.270320386     -0.245454505       555.786804      -1.52197671    
  0.479746491      0.140866295     -0.245454505       555.786804      -1.52197671    
  0.479746491      0.140866295     -0.327272713       555.786804      -1.52197671    
  0.420626789      0.270320386     -0.327272713       555.786804      -1.52197671    
  0.327430397      0.377874792     -0.245454505       461.764343      -1.52197671    
  0.420626789      0.270320386     -0.245454505       461.764343      -1.52197671    
  0.420626789      0.270320386     -0.327272713       461.764343      -1.52197671    
  0.327430397      0.377874792     -0.327272713       461.764343      -1.52197671    
  0.207707494      0.454816014     -0.245454505       330.332520      -1.52197683    
  0.327430397      0.377874792     -0.245454505       330.332520      -1.52197683    
  0.327430397      0.377874792     -0.327272713       330.332520      -1.52197683    
  0.207707494      0.454816014     -0.327272713       330.332520      -1.52197683    
   7.11574182E-02  0.494910687     -0.245454505       172.138962      -1.52197683    
  0.207707494      0.454816014     -0.245454505       172.138962      -1.52197683    
  0.207707494      0.454816014     -0.327272713       172.138962      -1.52197683    
   7.11574182E-02  0.494910687     -0.327272713       172.138962      -1.52197683    
  -7.11574182E-02  0.494910687     -0.245454505       5.33305174E-05   2.53451633    
   7.11574182E-02  0.494910687     -0.245454505       5.33305174E-05   2.53451633    
   7.11574182E-02  0.494910687     -0.327272713       5.33305174E-05   2.53451633    
  -7.11574182E-02  0.494910687     -0.327272713       5.33305174E-05   2.53451633    
 -0.207707494      0.454816014     -0.245454505       172.139130       1.61961603    
  -7.11574182E-02  0.494910687     -0.245454505       172.139130       1.61961603    
  -7.11574182E-02  0.494910687     -0.327272713       172.139130       1.61961603    
 -0.207707494      0.454816014     -0.327272713       172.139130       1.61961603    
 -0.327430397      0.377874792     -0.245454505       330.332367       1.61961603    
 -0.207707494      0.454816014     -0.245454505       330.332367       1.61961603    
 -0.207707494      0.454816014     -0.327272713       330.332367       1.61961603    
 -0.327430397      0.377874792     -0.327272713       330.332367       1.61961603    
 -0.420626789      0.270320386     -0.245454505       461.764435       1.61961603    
 -0.327430397      0.377874792     -0.245454505       461.764435       1.61961603    
 -0.327430397      0.377874792     -0.327272713       461.764435       1.61961603    
 -0.420626789      0.270320386     -0.327272713       461.764435       1.61961603    
 -0.479746491      0.140866295     -0.245454505       555.787048       1.61961603    
 -0.420626789      0.270320386     -0.245454505       555.787048       1.61961603    
 -0.420626789      0.270320386     -0.327272713       555.787048       1.61961603    
 -0.479746491      0.140866295     -0.327272713       555.787048       1.61961603    
 -0.500000000       2.84000009E-16 -0.245454505       604.783081       1.61961591    
 -0.479746491      0.140866295     -0.245454505       604.783081       1.61961591    
 -0.479746491      0.140866295     -0.327272713       604.783081       1.61961591    
 -0.500000000       2.84000009E-16 -0.327272713       604.783081       1.61961591    
  0.479746491      0.140866295     -0.327272713       597.615906      -1.52195287    
  0.500000000       0.00000000     -0.327272713       597.615906      -1.52195287    
  0.500000000       0.00000000     -0.409090906       597.615906      -1.52195287    
  0.479746491      0.140866295     -0.409090906       597.615906      -1.52195287    
  0.420626789      0.270320386     -0.327272713       549.200989      -1.52195287    
  0.479746491      0.140866295     -0.327272713       549.200989      -1.52195287    
  0.479746491      0.140866295     -0.409090906       549.200989      -1.52195287    
  0.420626789      0.270320386     -0.409090906       549.200989      -1.52195287    
  0.327430397      0.377874792     -0.327272713       456.292725      -1.52195287    
  0.420626789      0.270320386     -0.327272713       456.292725      -1.52195287    
  0.420626789      0.270320386     -0.409090906       456.292725      -1.52195287    
  0.327430397      0.377874792     -0.409090906       456.292725      -1.52195287    
  0.207707494      0.454816014     -0.327272713       326.418060      -1.52195287    
  0.327430397      0.377874792     -0.327272713       326.418060      -1.52195287    
  0.327430397      0.377874792     -0.409090906       326.418060      -1.52195287    
  0.207707494      0.454816014     -0.409090906       326.418060      -1.52195287    
   7.11574182E-02  0.494910687     -0.327272713       170.099274      -1.52195299    
  0.207707494      0.454816014     -0.327272713       170.099274      -1.52195299    
  0.207707494      0.454816014     -0.409090906       170.099274      -1.52195299    
   7.11574182E-02  0.494910687     -0.409090906       170.099274      -1.52195299    
  -7.11574182E-02  0.494910687     -0.327272713       1.25188180E-05   1.48562658    
   7.11574182E-02  0.494910687     -0.327272713       1.25188180E-05   1.48562658    
   7.11574182E-02  0.494910687     -0.409090906       1.25188180E-05   1.48562658    
  -7.11574182E-02  0.494910687     -0.409090906       1.25188180E-05   1.48562658    
 -0.207707494      0.454816014     -0.327272713       170.099319       1.61963987    
  -7.11574182E-02  0.494910687     -0.327272713       170.099319       1.61963987    
  -7.11574182E-02  0.494910687     -0.409090906       170.099319       1.61963987    
 -0.207707494      0.454816014     -0.409090906       170.099319       1.61963987    
 -0.327430397      0.377874792     -0.327272713       326.418182       1.61963987    
 -0.207707494      0.454816014     -0.327272713       326.418182       1.61963987    
 -0.207707494      0.454816014     -0.409090906       326.418182       1.61963987    
 -0.327430397      0.377874792     -0.409090906       326.418182       1.61963987    
 -0.420626789      0.270320386     -0.327272713       456.292816       1.61963987    
 -0.327430397      0.377874792     -0.327272713       456.292816       1.61963987    
 -0.327430397      0.377874792     -0.409090906       456.292816       1.61963987    
 -0.420626789      0.270320386     -0.409090906       456.292816       1.61963987    
 -0.479746491      0.140866295     -0.327272713       549.201050       1.61963987    
 -0.420626789      0.270320386     -0.327272713       549.201050       1.61963987    
 -0.420626789      0.270320386     -0.409090906       549.201050       1.61963987    
 -0.479746491      0.140866295     -0.409090906       549.201050       1.61963987    
 -0.500000000       2.84000009E-16 -0.327272713       597.616028       1.61963987    
 -0.479746491      0.140866295     -0.327272713       597.616028       1.61963987    
 -0.479746491      0.140866295     -0.409090906       597.616028       1.61963987    
 -0.500000000       2.84000009E-16 -0.409090906       597.616028       1.61963987    
  0.479746491      0.140866295     -0.409090906       589.156738      -1.52184737    
  0.500000000       0.00000000     -0.409090906       589.156738      -1.52184737    
  0.500000000       0.00000000     -0.490909100       589.156738      -1.52184737    
  0.479746491      0.140866295     -0.490909100       589.156738      -1.52184737    
  0.420626789      0.270320386     -0.409090906       541.426514      -1.52184725    
  0.479746491      0.140866295     -0.409090906       541.426514      -1.52184725    
  0.479746491      0.140866295     -0.490909100       541.426514      -1.52184725    
  0.420626789      0.270320386     -0.490909100       541.426514      -1.52184725    
  0.327430397      0.377874792     -0.409090906       449.833679      -1.52184725    
  0.420626789      0.270320386     -0.409090906       449.833679      -1.52184725    
  0.420626789      0.270320386     -0.490909100       449.833679      -1.52184725    
  0.327430397      0.377874792     -0.490909100       449.833679      -1.52184725    
  0.207707494      0.454816014     -0.409090906       321.797607      -1.52184725    
  0.327430397      0.377874792     -0.409090906       321.797607      -1.52184725    
  0.327430397      0.377874792     -0.490909100       321.797607      -1.52184725    
  0.207707494      0.454816014     -0.490909100       321.797607      -1.52184725    
   7.11574182E-02  0.494910687     -0.409090906       167.691360      -1.52184737    
  0.207707494      0.454816014     -0.409090906       167.691360      -1.52184737    
  0.207707494      0.454816014     -0.490909100       167.691360      -1.52184737    
   7.11574182E-02  0.494910687     -0.490909100       167.691360      -1.52184737    
  -7.11574182E-02  0.494910687     -0.409090906       8.72296550E-06   1.52567363    
   7.11574182E-02  0.494910687     -0.409090906       8.72296550E-06   1.52567363    
   7.11574182E-02  0.494910687     -0.490909100       8.72296550E-06   1.52567363    
  -7.11574182E-02  0.494910687     -0.490909100       8.72296550E-06   1.52567363    
 -0.207707494      0.454816014     -0.409090906       167.691498       1.61974549    
  -7.11574182E-02  0.494910687     -0.409090906       167.691498       1.61974549    
  -7.11574182E-02  0.494910687     -0.490909100       167.691498       1.61974549    
 -0.207707494      0.454816014     -0.490909100       167.691498       1.61974549    
 -0.327430397      0.377874792     -0.409090906       321.797668       1.61974549    
 -0.207707494      0.454816014     -0.409090906       321.797668       1.61974549    
 -0.207707494      0.454816014     -0.490909100       321.797668       1.61974549    
 -0.327430397      0.377874792     -0.490909100       321.797668       1.61974549    
 -0.420626789      0.270320386     -0.409090906       449.833710       1.61974549    
 -0.327430397      0.377874792     -0.409090906       449.833710       1.61974549    
 -0.327430397      0.377874792     -0.490909100       449.833710       1.61974549    
 -0.420626789      0.270320386     -0.490909100       449.833710       1.61974549    
 -0.479746491      0.140866295     -0.409090906       541.426575       1.61974549    
 -0.420626789      0.270320386     -0.409090906       541.426575       1.61974549    
 -0.420626789      0.270320386     -0.490909100       541.426575       1.61974549    
 -0.479746491      0.140866295     -0.490909100       541.426575       1.61974549    
 -0.500000000       2.84000009E-16 -0.409090906       589.156860       1.61974549    
 -0.479746491      0.140866295     -0.409090906       589.156860       1.61974549    
 -0.479746491      0.140866295     -0.490909100       589.156860       1.61974549    
 -0.500000000       2.84000009E-16 -0.490909100       589.156860       1.61974549    
  0.479746491      0.140866295     -0.490909100       578.651062      -1.52162051    
  0.500000000       0.00000000     -0.490909100       578.651062      -1.52162051    
  0.500000000       0.00000000     -0.572727323       578.651062      -1.52162051    
  0.479746491      0.140866295     -0.572727323       578.651062      -1.52162051    
  0.420626789      0.270320386     -0.490909100       531.772156      -1.52162051    
  0.479746491      0.140866295     -0.490909100       531.772156      -1.52162051    
  0.479746491      0.140866295     -0.572727323       531.772156      -1.52162051    
  0.420626789      0.270320386     -0.572727323       531.772156      -1.52162051    
  0.327430397      0.377874792     -0.490909100       441.812256      -1.52162051    
  0.420626789      0.270320386     -0.490909100       441.812256      -1.52162051    
  0.420626789      0.270320386     -0.572727323       441.812256      -1.52162051    
  0.327430397      0.377874792     -0.572727323       441.812256      -1.52162051    
  0.207707494      0.454816014     -0.490909100       316.059265      -1.52162051    
  0.327430397      0.377874792     -0.490909100       316.059265      -1.52162051    
  0.327430397      0.377874792     -0.572727323       316.059265      -1.52162051    
  0.207707494      0.454816014     -0.572727323       316.059265      -1.52162051    
   7.11574182E-02  0.494910687     -0.490909100       164.701172      -1.52162063    
  0.207707494      0.454816014     -0.490909100       164.701172      -1.52162063    
  0.207707494      0.454816014     -0.572727323       164.701172      -1.52162063    
   7.11574182E-02  0.494910687     -0.572727323       164.701172      -1.52162063    
  -7.11574182E-02  0.494910687     -0.490909100       1.32808073E-05   2.92692304    
   7.11574182E-02  0.494910687     -0.490909100       1.32808073E-05   2.92692304    
   7.11574182E-02  0.494910687     -0.572727323       1.32808073E-05   2.92692304    
  -7.11574182E-02  0.494910687     -0.572727323       1.32808073E-05   2.92692304    
 -0.207707494      0.454816014     -0.490909100       164.701218       1.61997235    
  -7.11574182E-02  0.494910687     -0.490909100       164.701218       1.61997235    
  -7.11574182E-02  0.494910687     -0.572727323       164.701218       1.61997235    
 -0.207707494      0.454816014     -0.572727323       164.701218       1.61997235    
 -0.327430397      0.377874792     -0.490909100       316.059265       1.61997223    
 -0.207707494      0.454816014     -0.490909100       316.059265       1.61997223    
 -0.207707494      0.454816014     -0.572727323       316.059265       1.61997223    
 -0.327430397      0.377874792     -0.572727323       316.059265       1.61997223    
 -0.420626789      0.270320386     -0.490909100       441.812256       1.61997223    
 -0.327430397      0.377874792     -0.490909100       441.812256       1.61997223    
 -0.327430397      0.377874792     -0.572727323       441.812256       1.61997223    
 -0.420626789      0.270320386     -0.572727323       441.812256       1.61997223    
 -0.479746491      0.140866295     -0.490909100       531.771973       1.61997223    
 -0.420626789      0.270320386     -0.490909100       531.771973       1.61997223    
 -0.420626789      0.270320386     -0.572727323       531.771973       1.61997223    
 -0.479746491      0.140866295     -0.572727323       531.771973       1.61997223    
 -0.500000000       2.84000009E-16 -0.490909100       578.651062       1.61997223    
 -0.479746491      0.140866295     -0.490909100       578.651062       1.61997223    
 -0.479746491      0.140866295     -0.572727323       578.651062       1.61997223    
 -0.500000000       2.84000009E-16 -0.572727323       578.651062       1.61997223    
  0.479746491      0.140866295     -0.572727323       564.984375      -1.52121150    
  0.500000000       0.00000000     -0.572727323       564.984375      -1.52121150    
  0.500000000       0.00000000     -0.654545426       564.984375      -1.52121150    
  0.479746491      0.140866295     -0.654545426       564.984375      -1.52121150    
  0.420626789      0.270320386     -0.572727323       519.212891      -1.52121150    
  0.479746491      0.140866295     -0.572727323       519.212891      -1.52121150    
  0.479746491      0.140866295     -0.654545426       519.212891      -1.52121150    
  0.420626789      0.270320386     -0.654545426       519.212891      -1.52121150    
  0.327430397      0.377874792     -0.572727323       431.377472      -1.52121150    
  0.420626789      0.270320386     -0.572727323       431.377472      -1.52121150    
  0.420626789      0.270320386     -0.654545426       431.377472      -1.52121150    
  0.327430397      0.377874792     -0.654545426       431.377472      -1.52121150    
  0.207707494      0.454816014     -0.572727323       308.594543      -1.52121150    
  0.327430397      0.377874792     -0.572727323       308.594543      -1.52121150    
  0.327430397      0.377874792     -0.654545426       308.594543      -1.52121150    
  0.207707494      0.454816014     -0.654545426       308.594543      -1.52121150    
   7.11574182E-02  0.494910687     -0.572727323       160.811218      -1.52121150    
  0.207707494      0.454816014     -0.572727323       160.811218      -1.52121150    
  0.207707494      0.454816014     -0.654545426       160.811218      -1.52121150    
   7.11574182E-02  0.494910687     -0.654545426       160.811218      -1.52121150    
  -7.11574182E-02  0.494910687     -0.572727323       2.29788475E-05   2.30794168    
   7.11574182E-02  0.494910687     -0.572727323       2.29788475E-05   2.30794168    
   7.11574182E-02  0.494910687     -0.654545426       2.29788475E-05   2.30794168    
  -7.11574182E-02  0.494910687     -0.654545426       2.29788475E-05   2.30794168    
 -0.207707494      0.454816014     -0.572727323       160.811249       1.62038136    
  -7.11574182E-02  0.494910687     -0.572727323       160.811249       1.62038136    
  -7.11574182E-02  0.494910687     -0.654545426       160.811249       1.62038136    
 -0.207707494      0.454816014     -0.654545426       160.811249       1.62038136    
 -0.327430397      0.377874792     -0.572727323       308.594543       1.62038124    
 -0.207707494      0.454816014     -0.572727323       308.594543       1.62038124    
 -0.207707494      0.454816014     -0.654545426       308.594543       1.62038124    
 -0.327430397      0.377874792     -0.654545426       308.594543       1.62038124    
 -0.420626789      0.270320386     -0.572727323       431.377563       1.62038112    
 -0.327430397      0.377874792     -0.572727323       431.377563       1.62038112    
 -0.327430397      0.377874792     -0.654545426       431.377563       1.62038112    
 -0.420626789      0.270320386     -0.654545426       431.377563       1.62038112    
 -0.479746491      0.140866295     -0.572727323       519.212891       1.62038112    
 -0.420626789      0.270320386     -0.572727323       519.212891       1.62038112    
 -0.420626789      0.270320386     -0.654545426       519.212891       1.62038112    