 VARIABLES="X" "Y" "Z" "abs(p) (Pa)" "angle(p) (rad)"
ZONE N=    528,E =     462, F=FEPOINT, ET=QUADRILATERAL
  0.479746491      0.140866295       0.00000000       195.489899       1.57564008    
  0.500000000       0.00000000       0.00000000       195.489899       1.57564008    
  0.500000000       0.00000000      -8.18181783E-02   195.489899       1.57564008    
  0.479746491      0.140866295      -8.18181783E-02   195.489899       1.57564008    
  0.420626789      0.270320386       0.00000000       570.629333       1.57563412    
  0.479746491      0.140866295       0.00000000       570.629333       1.57563412    
  0.479746491      0.140866295      -8.18181783E-02   570.629333       1.57563412    
  0.420626789      0.270320386      -8.18181783E-02   570.629333       1.57563412    
  0.327430397      0.377874792       0.00000000       899.540894       1.57563496    
  0.420626789      0.270320386       0.00000000       899.540894       1.57563496    
  0.420626789      0.270320386      -8.18181783E-02   899.540894       1.57563496    
  0.327430397      0.377874792      -8.18181783E-02   899.540894       1.57563496    
  0.207707494      0.454816014       0.00000000       1155.57544       1.57563484    
  0.327430397      0.377874792       0.00000000       1155.57544       1.57563484    
  0.327430397      0.377874792      -8.18181783E-02   1155.57544       1.57563484    
  0.207707494      0.454816014      -8.18181783E-02   1155.57544       1.57563484    
   7.11574182E-02  0.494910687       0.00000000       1317.99536       1.57563508    
  0.207707494      0.454816014       0.00000000       1317.99536       1.57563508    
  0.207707494      0.454816014      -8.18181783E-02   1317.99536       1.57563508    
   7.11574182E-02  0.494910687      -8.18181783E-02   1317.99536       1.57563508    
  -7.11574182E-02  0.494910687       0.00000000       1373.63611       1.57563567    
   7.11574182E-02  0.494910687       0.00000000       1373.63611       1.57563567    
   7.11574182E-02  0.494910687      -8.18181783E-02   1373.63611       1.57563567    
  -7.11574182E-02  0.494910687      -8.18181783E-02   1373.63611       1.57563567    
 -0.207707494      0.454816014       0.00000000       1317.99451       1.57563519    
  -7.11574182E-02  0.494910687       0.00000000       1317.99451       1.57563519    
  -7.11574182E-02  0.494910687      -8.18181783E-02   1317.99451       1.57563519    
 -0.207707494      0.454816014      -8.18181783E-02   1317.99451       1.57563519    
 -0.327430397      0.377874792       0.00000000       1155.57617       1.57563531    
 -0.207707494      0.454816014       0.00000000       1155.57617       1.57563531    
 -0.207707494      0.454816014      -8.18181783E-02   1155.57617       1.57563531    
 -0.327430397      0.377874792      -8.18181783E-02   1155.57617       1.57563531    
 -0.420626789      0.270320386       0.00000000       899.541443       1.57563496    
 -0.327430397      0.377874792       0.00000000       899.541443       1.57563496    
 -0.327430397      0.377874792      -8.18181783E-02   899.541443       1.57563496    
 -0.420626789      0.270320386      -8.18181783E-02   899.541443       1.57563496    
 -0.479746491      0.140866295       0.00000000       570.628967       1.57563424    
 -0.420626789      0.270320386       0.00000000       570.628967       1.57563424    
 -0.420626789      0.270320386      -8.18181783E-02   570.628967       1.57563424    
 -0.479746491      0.140866295      -8.18181783E-02   570.628967       1.57563424    
 -0.500000000       2.84000009E-16   0.00000000       195.489532       1.57563543    
 -0.479746491      0.140866295       0.00000000       195.489532       1.57563543    
 -0.479746491      0.140866295      -8.18181783E-02   195.489532       1.57563543    
 -0.500000000       2.84000009E-16  -8.18181783E-02   195.489532       1.57563543    
  0.479746491      0.140866295      -8.18181783E-02   194.807312       1.57564723    
  0.500000000       0.00000000      -8.18181783E-02   194.807312       1.57564723    
  0.500000000       0.00000000     -0.163636401       194.807312       1.57564723    
  0.479746491      0.140866295     -0.163636401       194.807312       1.57564723    
  0.420626789      0.270320386      -8.18181783E-02   568.639343       1.57564580    
  0.479746491      0.140866295      -8.18181783E-02   568.639343       1.57564580    
  0.479746491      0.140866295     -0.163636401       568.639343       1.57564580    
  0.420626789      0.270320386     -0.163636401       568.639343       1.57564580    
  0.327430397      0.377874792      -8.18181783E-02   896.403931       1.57564652    
  0.420626789      0.270320386      -8.18181783E-02   896.403931       1.57564652    
  0.420626789      0.270320386     -0.163636401       896.403931       1.57564652    
  0.327430397      0.377874792     -0.163636401       896.403931       1.57564652    
  0.207707494      0.454816014      -8.18181783E-02   1151.54504       1.57564700    
  0.327430397      0.377874792      -8.18181783E-02   1151.54504       1.57564700    
  0.327430397      0.377874792     -0.163636401       1151.54504       1.57564700    
  0.207707494      0.454816014     -0.163636401       1151.54504       1.57564700    
   7.11574182E-02  0.494910687      -8.18181783E-02   1313.39465       1.57564664    
  0.207707494      0.454816014      -8.18181783E-02   1313.39465       1.57564664    
  0.207707494      0.454816014     -0.163636401       1313.39465       1.57564664    
   7.11574182E-02  0.494910687     -0.163636401       1313.39465       1.57564664    
  -7.11574182E-02  0.494910687      -8.18181783E-02   1368.84534       1.57564616    
   7.11574182E-02  0.494910687      -8.18181783E-02   1368.84534       1.57564616    
   7.11574182E-02  0.494910687     -0.163636401       1368.84534       1.57564616    
  -7.11574182E-02  0.494910687     -0.163636401       1368.84534       1.57564616    
 -0.207707494      0.454816014      -8.18181783E-02   1313.39441       1.57564664    
  -7.11574182E-02  0.494910687      -8.18181783E-02   1313.39441       1.57564664    
  -7.11574182E-02  0.494910687     -0.163636401       1313.39441       1.57564664    
 -0.207707494      0.454816014     -0.163636401       1313.39441       1.57564664    
 -0.327430397      0.377874792      -8.18181783E-02   1151.54529       1.57564652    
 -0.207707494      0.454816014      -8.18181783E-02   1151.54529       1.57564652    
 -0.207707494      0.454816014     -0.163636401       1151.54529       1.57564652    
 -0.327430397      0.377874792     -0.163636401       1151.54529       1.57564652    
 -0.420626789      0.270320386      -8.18181783E-02   896.402832       1.57564652    
 -0.327430397      0.377874792      -8.18181783E-02   896.402832       1.57564652    
 -0.327430397      0.377874792     -0.163636401       896.402832       1.57564652    
 -0.420626789      0.270320386     -0.163636401       896.402832       1.57564652    
 -0.479746491      0.140866295      -8.18181783E-02   568.639526       1.57564628    
 -0.420626789      0.270320386      -8.18181783E-02   568.639526       1.57564628    
 -0.420626789      0.270320386     -0.163636401       568.639526       1.57564628    
 -0.479746491      0.140866295     -0.163636401       568.639526       1.57564628    
 -0.500000000       2.84000009E-16  -8.18181783E-02   194.808762       1.57564497    
 -0.479746491      0.140866295      -8.18181783E-02   194.808762       1.57564497    
 -0.479746491      0.140866295     -0.163636401       194.808762       1.57564497    
 -0.500000000       2.84000009E-16 -0.163636401       194.808762       1.57564497    
  0.479746491      0.140866295     -0.163636401       193.325073       1.57567561    
  0.500000000       0.00000000     -0.163636401       193.325073       1.57567561    
  0.500000000       0.00000000     -0.245454505       193.325073       1.57567561    
  0.479746491      0.140866295     -0.245454505       193.325073       1.57567561    
  0.420626789      0.270320386     -0.163636401       564.311096       1.57567108    
  0.479746491      0.140866295     -0.163636401       564.311096       1.57567108    
  0.479746491      0.140866295     -0.245454505       564.311096       1.57567108    
  0.420626789      0.270320386     -0.245454505       564.311096       1.57567108    
  0.327430397      0.377874792     -0.163636401       889.583130       1.57567179    
  0.420626789      0.270320386     -0.163636401       889.583130       1.57567179    
  0.420626789      0.270320386     -0.245454505       889.583130       1.57567179    
  0.327430397      0.377874792     -0.245454505       889.583130       1.57567179    
  0.207707494      0.454816014     -0.163636401       1142.78418       1.57567191    
  0.327430397      0.377874792     -0.163636401       1142.78418       1.57567191    
  0.327430397      0.377874792     -0.245454505       1142.78418       1.57567191    
  0.207707494      0.454816014     -0.245454505       1142.78418       1.57567191    
   7.11574182E-02  0.494910687     -0.163636401       1303.40649       1.57567167    
  0.207707494      0.454816014     -0.163636401       1303.40649       1.57567167    
  0.207707494      0.454816014     -0.245454505       1303.40649       1.57567167    
   7.11574182E-02  0.494910687     -0.245454505       1303.40649       1.57567167    
  -7.11574182E-02  0.494910687     -0.163636401       1358.43372       1.57567227    
   7.11574182E-02  0.494910687     -0.163636401       1358.43372       1.57567227    
   7.11574182E-02  0.494910687     -0.245454505       1358.43372       1.57567227    
  -7.11574182E-02  0.494910687     -0.245454505       1358.43372       1.57567227    
 -0.207707494      0.454816014     -0.163636401       1303.40540       1.57567155    
  -7.11574182E-02  0.494910687     -0.163636401       1303.40540       1.57567155    
  -7.11574182E-02  0.494910687     -0.245454505       1303.40540       1.57567155    
 -0.207707494      0.454816014     -0.245454505       1303.40540       1.57567155    
 -0.327430397      0.377874792     -0.163636401       1142.78491       1.57567227    
 -0.207707494      0.454816014     -0.163636401       1142.78491       1.57567227    
 -0.207707494      0.454816014     -0.245454505       1142.78491       1.57567227    
 -0.327430397      0.377874792     -0.245454505       1142.78491       1.57567227    
 -0.420626789      0.270320386     -0.163636401       889.583679       1.57567179    
 -0.327430397      0.377874792     -0.163636401       889.583679       1.57567179    
 -0.327430397      0.377874792     -0.245454505       889.583679       1.57567179    
 -0.420626789      0.270320386     -0.245454505       889.583679       1.57567179    
 -0.479746491      0.140866295     -0.163636401       564.310547       1.57567108    
 -0.420626789      0.270320386     -0.163636401       564.310547       1.57567108    
 -0.420626789      0.270320386     -0.245454505       564.310547       1.57567108    
 -0.479746491      0.140866295     -0.245454505       564.310547       1.57567108    
 -0.500000000       2.84000009E-16 -0.163636401       193.325424       1.57567692    
 -0.479746491      0.140866295     -0.163636401       193.325424       1.57567692    
 -0.479746491      0.140866295     -0.245454505       193.325424       1.57567692    
 -0.500000000       2.84000009E-16 -0.245454505       193.325424       1.57567692    
  0.479746491      0.140866295     -0.245454505       191.339935       1.57570434    
  0.500000000       0.00000000     -0.245454505       191.339935       1.57570434    
  0.500000000       0.00000000     -0.327272713       191.339935       1.57570434    
  0.479746491      0.140866295     -0.327272713       191.339935       1.57570434    
  0.420626789      0.270320386     -0.245454505       558.516235       1.57570577    
  0.479746491      0.140866295     -0.245454505       558.516235       1.57570577    
  0.479746491      0.140866295     -0.327272713       558.516235       1.57570577    
  0.420626789      0.270320386     -0.327272713       558.516235       1.57570577    
  0.327430397      0.377874792     -0.245454505       880.442017       1.57570529    
  0.420626789      0.270320386     -0.245454505       880.442017       1.57570529    
  0.420626789      0.270320386     -0.327272713       880.442017       1.57570529    
  0.327430397      0.377874792     -0.327272713       880.442017       1.57570529    
  0.207707494      0.454816014     -0.245454505       1131.04297       1.57570541    
  0.327430397      0.377874792     -0.245454505       1131.04297       1.57570541    
  0.327430397      0.377874792     -0.327272713       1131.04297       1.57570541    
  0.207707494      0.454816014     -0.327272713       1131.04297       1.57570541    
   7.11574182E-02  0.494910687     -0.245454505       1290.01282       1.57570505    
  0.207707494      0.454816014     -0.245454505       1290.01282       1.57570505    
  0.207707494      0.454816014     -0.327272713       1290.01282       1.57570505    
   7.11574182E-02  0.494910687     -0.327272713       1290.01282       1.57570505    
  -7.11574182E-02  0.494910687     -0.245454505       1344.47327       1.57570577    
   7.11574182E-02  0.494910687     -0.245454505       1344.47327       1.57570577    
   7.11574182E-02  0.494910687     -0.327272713       1344.47327       1.57570577    
  -7.11574182E-02  0.494910687     -0.327272713       1344.47327       1.57570577    
 -0.207707494      0.454816014     -0.245454505       1290.01318       1.57570517    
  -7.11574182E-02  0.494910687     -0.245454505       1290.01318       1.57570517    
  -7.11574182E-02  0.494910687     -0.327272713       1290.01318       1.57570517    
 -0.207707494      0.454816014     -0.327272713       1290.01318       1.57570517    
 -0.327430397      0.377874792     -0.245454505       1131.04163       1.57570517    
 -0.207707494      0.454816014     -0.245454505       1131.04163       1.57570517    
 -0.207707494      0.454816014     -0.327272713       1131.04163       1.57570517    
 -0.327430397      0.377874792     -0.327272713       1131.04163       1.57570517    
 -0.420626789      0.270320386     -0.245454505       880.441467       1.57570505    
 -0.327430397      0.377874792     -0.245454505       880.441467       1.57570505    
 -0.327430397      0.377874792     -0.327272713       880.441467       1.57570505    
 -0.420626789      0.270320386     -0.327272713       880.441467       1.57570505    
 -0.479746491      0.140866295     -0.245454505       558.516418       1.57570541    
 -0.420626789      0.270320386     -0.245454505       558.516418       1.57570541    
 -0.420626789      0.270320386     -0.327272713       558.516418       1.57570541    
 -0.479746491      0.140866295     -0.327272713       558.516418       1.57570541    
 -0.500000000       2.84000009E-16 -0.245454505       191.339935       1.57570338    
 -0.479746491      0.140866295     -0.245454505       191.339935       1.57570338    
 -0.479746491      0.140866295     -0.327272713       191.339935       1.57570338    
 -0.500000000       2.84000009E-16 -0.327272713       191.339935       1.57570338    
  0.479746491      0.140866295     -0.327272713       188.839081       1.57575107    
  0.500000000       0.00000000     -0.327272713       188.839081       1.57575107    
  0.500000000       0.00000000     -0.409090906       188.839081       1.57575107    
  0.479746491      0.140866295     -0.409090906       188.839081       1.57575107    
  0.420626789      0.270320386     -0.327272713       551.218262       1.57574689    
  0.479746491      0.140866295     -0.327272713       551.218262       1.57574689    
  0.479746491      0.140866295     -0.409090906       551.218262       1.57574689    
  0.420626789      0.270320386     -0.409090906       551.218262       1.57574689    
  0.327430397      0.377874792     -0.327272713       868.941223       1.57574797    
  0.420626789      0.270320386     -0.327272713       868.941223       1.57574797    
  0.420626789      0.270320386     -0.409090906       868.941223       1.57574797    
  0.327430397      0.377874792     -0.409090906       868.941223       1.57574797    
  0.207707494      0.454816014     -0.327272713       1116.26807       1.57574677    
  0.327430397      0.377874792     -0.327272713       1116.26807       1.57574677    
  0.327430397      0.377874792     -0.409090906       1116.26807       1.57574677    
  0.207707494      0.454816014     -0.409090906       1116.26807       1.57574677    
   7.11574182E-02  0.494910687     -0.327272713       1273.16028       1.57574785    
  0.207707494      0.454816014     -0.327272713       1273.16028       1.57574785    
  0.207707494      0.454816014     -0.409090906       1273.16028       1.57574785    
   7.11574182E-02  0.494910687     -0.409090906       1273.16028       1.57574785    
  -7.11574182E-02  0.494910687     -0.327272713       1326.91162       1.57574701    
   7.11574182E-02  0.494910687     -0.327272713       1326.91162       1.57574701    
   7.11574182E-02  0.494910687     -0.409090906       1326.91162       1.57574701    
  -7.11574182E-02  0.494910687     -0.409090906       1326.91162       1.57574701    
 -0.207707494      0.454816014     -0.327272713       1273.16052       1.57574809    
  -7.11574182E-02  0.494910687     -0.327272713       1273.16052       1.57574809    
  -7.11574182E-02  0.494910687     -0.409090906       1273.16052       1.57574809    
 -0.207707494      0.454816014     -0.409090906       1273.16052       1.57574809    
 -0.327430397      0.377874792     -0.327272713       1116.26892       1.57574642    
 -0.207707494      0.454816014     -0.327272713       1116.26892       1.57574642    
 -0.207707494      0.454816014     -0.409090906       1116.26892       1.57574642    
 -0.327430397      0.377874792     -0.409090906       1116.26892       1.57574642    
 -0.420626789      0.270320386     -0.327272713       868.940125       1.57574832    
 -0.327430397      0.377874792     -0.327272713       868.940125       1.57574832    
 -0.327430397      0.377874792     -0.409090906       868.940125       1.57574832    
 -0.420626789      0.270320386     -0.409090906       868.940125       1.57574832    
 -0.479746491      0.140866295     -0.327272713       551.219177       1.57574749    
 -0.420626789      0.270320386     -0.327272713       551.219177       1.57574749    
 -0.420626789      0.270320386     -0.409090906       551.219177       1.57574749    
 -0.479746491      0.140866295     -0.409090906       551.219177       1.57574749    
 -0.500000000       2.84000009E-16 -0.327272713       188.840897       1.57575154    
 -0.479746491      0.140866295     -0.327272713       188.840897       1.57575154    
 -0.479746491      0.140866295     -0.409090906       188.840897       1.57575154    
 -0.500000000       2.84000009E-16 -0.409090906       188.840897       1.57575154    
  0.479746491      0.140866295     -0.409090906       185.771072       1.57579780    
  0.500000000       0.00000000     -0.409090906       185.771072       1.57579780    
  0.500000000       0.00000000     -0.490909100       185.771072       1.57579780    
  0.479746491      0.140866295     -0.490909100       185.771072       1.57579780    
  0.420626789      0.270320386     -0.409090906       542.267273       1.57579780    
  0.479746491      0.140866295     -0.409090906       542.267273       1.57579780    
  0.479746491      0.140866295     -0.490909100       542.267273       1.57579780    
  0.420626789      0.270320386     -0.490909100       542.267273       1.57579780    
  0.327430397      0.377874792     -0.409090906       854.827881       1.57579911    
  0.420626789      0.270320386     -0.409090906       854.827881       1.57579911    
  0.420626789      0.270320386     -0.490909100       854.827881       1.57579911    
  0.327430397      0.377874792     -0.490909100       854.827881       1.57579911    
  0.207707494      0.454816014     -0.409090906       1098.13879       1.57579839    
  0.327430397      0.377874792     -0.409090906       1098.13879       1.57579839    
  0.327430397      0.377874792     -0.490909100       1098.13879       1.57579839    
  0.207707494      0.454816014     -0.490909100       1098.13879       1.57579839    
   7.11574182E-02  0.494910687     -0.409090906       1252.48267       1.57579863    
  0.207707494      0.454816014     -0.409090906       1252.48267       1.57579863    
  0.207707494      0.454816014     -0.490909100       1252.48267       1.57579863    
   7.11574182E-02  0.494910687     -0.490909100       1252.48267       1.57579863    
  -7.11574182E-02  0.494910687     -0.409090906       1305.35950       1.57579887    
   7.11574182E-02  0.494910687     -0.409090906       1305.35950       1.57579887    
   7.11574182E-02  0.494910687     -0.490909100       1305.35950       1.57579887    
  -7.11574182E-02  0.494910687     -0.490909100       1305.35950       1.57579887    
 -0.207707494      0.454816014     -0.409090906       1252.48328       1.57579827    
  -7.11574182E-02  0.494910687     -0.409090906       1252.48328       1.57579827    
  -7.11574182E-02  0.494910687     -0.490909100       1252.48328       1.57579827    
 -0.207707494      0.454816014     -0.490909100       1252.48328       1.57579827    
 -0.327430397      0.377874792     -0.409090906       1098.13806       1.57579839    
 -0.207707494      0.454816014     -0.409090906       1098.13806       1.57579839    
 -0.207707494      0.454816014     -0.490909100       1098.13806       1.57579839    
 -0.327430397      0.377874792     -0.490909100       1098.13806       1.57579839    
 -0.420626789      0.270320386     -0.409090906       854.828247       1.57579887    
 -0.327430397      0.377874792     -0.409090906       854.828247       1.57579887    
 -0.327430397      0.377874792     -0.490909100       854.828247       1.57579887    
 -0.420626789      0.270320386     -0.490909100       854.828247       1.57579887    
 -0.479746491      0.140866295     -0.409090906       542.266907       1.57579696    
 -0.420626789      0.270320386     -0.409090906       542.266907       1.57579696    
 -0.420626789      0.270320386     -0.490909100       542.266907       1.57579696    
 -0.479746491      0.140866295     -0.490909100       542.266907       1.57579696    
 -0.500000000       2.84000009E-16 -0.409090906       185.772522       1.57579863    
 -0.479746491      0.140866295     -0.409090906       185.772522       1.57579863    
 -0.479746491      0.140866295     -0.490909100       185.772522       1.57579863    
 -0.500000000       2.84000009E-16 -0.490909100       185.772522       1.57579863    
  0.479746491      0.140866295     -0.490909100       181.977112       1.57586062    
  0.500000000       0.00000000     -0.490909100       181.977112       1.57586062    
  0.500000000       0.00000000     -0.572727323       181.977112       1.57586062    
  0.479746491      0.140866295     -0.572727323       181.977112       1.57586062    
  0.420626789      0.270320386     -0.490909100       531.186951       1.57586181    
  0.479746491      0.140866295     -0.490909100       531.186951       1.57586181    
  0.479746491      0.140866295     -0.572727323       531.186951       1.57586181    
  0.420626789      0.270320386     -0.572727323       531.186951       1.57586181    
  0.327430397      0.377874792     -0.490909100       837.361389       1.57586074    
  0.420626789      0.270320386     -0.490909100       837.361389       1.57586074    
  0.420626789      0.270320386     -0.572727323       837.361389       1.57586074    
  0.327430397      0.377874792     -0.572727323       837.361389       1.57586074    
  0.207707494      0.454816014     -0.490909100       1075.69971       1.57586145    
  0.327430397      0.377874792     -0.490909100       1075.69971       1.57586145    
  0.327430397      0.377874792     -0.572727323       1075.69971       1.57586145    
  0.207707494      0.454816014     -0.572727323       1075.69971       1.57586145    
   7.11574182E-02  0.494910687     -0.490909100       1226.89343       1.57586074    
  0.207707494      0.454816014     -0.490909100       1226.89343       1.57586074    
  0.207707494      0.454816014     -0.572727323       1226.89343       1.57586074    
   7.11574182E-02  0.494910687     -0.572727323       1226.89343       1.57586074    
  -7.11574182E-02  0.494910687     -0.490909100       1278.68811       1.57586169    
   7.11574182E-02  0.494910687     -0.490909100       1278.68811       1.57586169    
   7.11574182E-02  0.494910687     -0.572727323       1278.68811       1.57586169    
  -7.11574182E-02  0.494910687     -0.572727323       1278.68811       1.57586169    
 -0.207707494      0.454816014     -0.490909100       1226.89258       1.57586086    
  -7.11574182E-02  0.494910687     -0.490909100       1226.89258       1.57586086    
  -7.11574182E-02  0.494910687     -0.572727323       1226.89258       1.57586086    
 -0.207707494      0.454816014     -0.572727323       1226.89258       1.57586086    
 -0.327430397      0.377874792     -0.490909100       1075.70093       1.57586145    
 -0.207707494      0.454816014     -0.490909100       1075.70093       1.57586145    
 -0.207707494      0.454816014     -0.572727323       1075.70093       1.57586145    
 -0.327430397      0.377874792     -0.572727323       1075.70093       1.57586145    
 -0.420626789      0.270320386     -0.490909100       837.361938       1.57586122    
 -0.327430397      0.377874792     -0.490909100       837.361938       1.57586122    
 -0.327430397      0.377874792     -0.572727323       837.361938       1.57586122    
 -0.420626789      0.270320386     -0.572727323       837.361938       1.57586122    
 -0.479746491      0.140866295     -0.490909100       531.186035       1.57586145    
 -0.420626789      0.270320386     -0.490909100       531.186035       1.57586145    
 -0.420626789      0.270320386     -0.572727323       531.186035       1.57586145    
 -0.479746491      0.140866295     -0.572727323       531.186035       1.57586145    
 -0.500000000       2.84000009E-16 -0.490909100       181.977478       1.57586110    
 -0.479746491      0.140866295     -0.490909100       181.977478       1.57586110    
 -0.479746491      0.140866295     -0.572727323       181.977478       1.57586110    
 -0.500000000       2.84000009E-16 -0.572727323       181.977478       1.57586110    
  0.479746491      0.140866295     -0.572727323       177.182510       1.57593977    
  0.500000000       0.00000000     -0.572727323       177.182510       1.57593977    
  0.500000000       0.00000000     -0.654545426       177.182510       1.57593977    
  0.479746491      0.140866295     -0.654545426       177.182510       1.57593977    
  0.420626789      0.270320386     -0.572727323       517.192322       1.57593882    
  0.479746491      0.140866295     -0.572727323       517.192322       1.57593882    
  0.479746491      0.140866295     -0.654545426       517.192322       1.57593882    
  0.420626789      0.270320386     -0.654545426       517.192322       1.57593882    
  0.327430397      0.377874792     -0.572727323       815.302124       1.57594073    
  0.420626789      0.270320386     -0.572727323       815.302124       1.57594073    
  0.420626789      0.270320386     -0.654545426       815.302124       1.57594073    
  0.327430397      0.377874792     -0.654545426       815.302124       1.57594073    
  0.207707494      0.454816014     -0.572727323       1047.35779       1.57594013    
  0.327430397      0.377874792     -0.572727323       1047.35779       1.57594013    
  0.327430397      0.377874792     -0.654545426       1047.35779       1.57594013    
  0.207707494      0.454816014     -0.654545426       1047.35779       1.57594013    
   7.11574182E-02  0.494910687     -0.572727323       1194.56775       1.57594061    
  0.207707494      0.454816014     -0.572727323       1194.56775       1.57594061    
  0.207707494      0.454816014     -0.654545426       1194.56775       1.57594061    
   7.11574182E-02  0.494910687     -0.654545426       1194.56775       1.57594061    
  -7.11574182E-02  0.494910687     -0.572727323       1244.99963       1.57594073    
   7.11574182E-02  0.494910687     -0.572727323       1244.99963       1.57594073    
   7.11574182E-02  0.494910687     -0.654545426       1244.99963       1.57594073    
  -7.11574182E-02  0.494910687     -0.654545426       1244.99963       1.57594073    
 -0.207707494      0.454816014     -0.572727323       1194.56921       1.57594073    
  -7.11574182E-02  0.494910687     -0.572727323       1194.56921       1.57594073    
  -7.11574182E-02  0.494910687     -0.654545426       1194.56921       1.57594073    
 -0.207707494      0.454816014     -0.654545426       1194.56921       1.57594073    
 -0.327430397      0.377874792     -0.572727323       1047.35815       1.57594049    
 -0.207707494      0.454816014     -0.572727323       1047.35815       1.57594049    
 -0.207707494      0.454816014     -0.654545426       1047.35815       1.57594049    
 -0.327430397      0.377874792     -0.654545426       1047.35815       1.57594049    
 -0.420626789      0.270320386     -0.572727323       815.303040       1.57594061    
 -0.327430397      0.377874792     -0.572727323       815.303040       1.57594061    
 -0.327430397      0.377874792     -0.654545426       815.303040       1.57594061    
 -0.420626789      0.270320386     -0.654545426       815.303040       1.57594061    
 -0.479746491      0.140866295     -0.572727323       517.191589       1.57594001    
 -0.420626789      0.270320386     -0.572727323       517.191589       1.57594001    
 -0.420626789      0.270320386     -0.654545426       517.191589       1.57594001    