 VARIABLES="X" "Y" "Z" "abs(p) (Pa)" "angle(p) (rad)"
ZONE N=    528,E =     462, F=FEPOINT, ET=QUADRILATERAL
  0.479746491      0.140866295       0.00000000       2739.72290       6.55865646E-04
  0.500000000       0.00000000       0.00000000       2739.72290       6.55865646E-04
  0.500000000       0.00000000      -8.18181783E-02   2739.72290       6.55865646E-04
  0.479746491      0.140866295      -8.18181783E-02   2739.72290       6.55865646E-04
  0.420626789      0.270320386       0.00000000       2517.76709       6.56006043E-04
  0.479746491      0.140866295       0.00000000       2517.76709       6.56006043E-04
  0.479746491      0.140866295      -8.18181783E-02   2517.76709       6.56006043E-04
  0.420626789      0.270320386      -8.18181783E-02   2517.76709       6.56006043E-04
  0.327430397      0.377874792       0.00000000       2091.83618       6.56100339E-04
  0.420626789      0.270320386       0.00000000       2091.83618       6.56100339E-04
  0.420626789      0.270320386      -8.18181783E-02   2091.83618       6.56100339E-04
  0.327430397      0.377874792      -8.18181783E-02   2091.83618       6.56100339E-04
  0.207707494      0.454816014       0.00000000       1496.43811       6.56253309E-04
  0.327430397      0.377874792       0.00000000       1496.43811       6.56253309E-04
  0.327430397      0.377874792      -8.18181783E-02   1496.43811       6.56253309E-04
  0.207707494      0.454816014      -8.18181783E-02   1496.43811       6.56253309E-04
   7.11574182E-02  0.494910687       0.00000000       779.806396       6.56822871E-04
  0.207707494      0.454816014       0.00000000       779.806396       6.56822871E-04
  0.207707494      0.454816014      -8.18181783E-02   779.806396       6.56822871E-04
   7.11574182E-02  0.494910687      -8.18181783E-02   779.806396       6.56822871E-04
  -7.11574182E-02  0.494910687       0.00000000       3.60681763E-04   1.78009748    
   7.11574182E-02  0.494910687       0.00000000       3.60681763E-04   1.78009748    
   7.11574182E-02  0.494910687      -8.18181783E-02   3.60681763E-04   1.78009748    
  -7.11574182E-02  0.494910687      -8.18181783E-02   3.60681763E-04   1.78009748    
 -0.207707494      0.454816014       0.00000000       779.806458      -3.14093637    
  -7.11574182E-02  0.494910687       0.00000000       779.806458      -3.14093637    
  -7.11574182E-02  0.494910687      -8.18181783E-02   779.806458      -3.14093637    
 -0.207707494      0.454816014      -8.18181783E-02   779.806458      -3.14093637    
 -0.327430397      0.377874792       0.00000000       1496.43738      -3.14093661    
 -0.207707494      0.454816014       0.00000000       1496.43738      -3.14093661    
 -0.207707494      0.454816014      -8.18181783E-02   1496.43738      -3.14093661    
 -0.327430397      0.377874792      -8.18181783E-02   1496.43738      -3.14093661    
 -0.420626789      0.270320386       0.00000000       2091.83618      -3.14093685    
 -0.327430397      0.377874792       0.00000000       2091.83618      -3.14093685    
 -0.327430397      0.377874792      -8.18181783E-02   2091.83618      -3.14093685    
 -0.420626789      0.270320386      -8.18181783E-02   2091.83618      -3.14093685    
 -0.479746491      0.140866295       0.00000000       2517.76709      -3.14093661    
 -0.420626789      0.270320386       0.00000000       2517.76709      -3.14093661    
 -0.420626789      0.270320386      -8.18181783E-02   2517.76709      -3.14093661    
 -0.479746491      0.140866295      -8.18181783E-02   2517.76709      -3.14093661    
 -0.500000000       2.84000009E-16   0.00000000       2739.72290      -3.14093661    
 -0.479746491      0.140866295       0.00000000       2739.72290      -3.14093661    
 -0.479746491      0.140866295      -8.18181783E-02   2739.72290      -3.14093661    
 -0.500000000       2.84000009E-16  -8.18181783E-02   2739.72290      -3.14093661    
  0.479746491      0.140866295      -8.18181783E-02   2005.85986     -0.107812822    
  0.500000000       0.00000000      -8.18181783E-02   2005.85986     -0.107812822    
  0.500000000       0.00000000     -0.163636401       2005.85986     -0.107812822    
  0.479746491      0.140866295     -0.163636401       2005.85986     -0.107812822    
  0.420626789      0.270320386      -8.18181783E-02   1843.35706     -0.107812613    
  0.479746491      0.140866295      -8.18181783E-02   1843.35706     -0.107812613    
  0.479746491      0.140866295     -0.163636401       1843.35706     -0.107812613    
  0.420626789      0.270320386     -0.163636401       1843.35706     -0.107812613    
  0.327430397      0.377874792      -8.18181783E-02   1531.51660     -0.107812151    
  0.420626789      0.270320386      -8.18181783E-02   1531.51660     -0.107812151    
  0.420626789      0.270320386     -0.163636401       1531.51660     -0.107812151    
  0.327430397      0.377874792     -0.163636401       1531.51660     -0.107812151    
  0.207707494      0.454816014      -8.18181783E-02   1095.60193     -0.107812554    
  0.327430397      0.377874792      -8.18181783E-02   1095.60193     -0.107812554    
  0.327430397      0.377874792     -0.163636401       1095.60193     -0.107812554    
  0.207707494      0.454816014     -0.163636401       1095.60193     -0.107812554    
   7.11574182E-02  0.494910687      -8.18181783E-02   570.927002     -0.107811235    
  0.207707494      0.454816014      -8.18181783E-02   570.927002     -0.107811235    
  0.207707494      0.454816014     -0.163636401       570.927002     -0.107811235    
   7.11574182E-02  0.494910687     -0.163636401       570.927002     -0.107811235    
  -7.11574182E-02  0.494910687      -8.18181783E-02   3.23010667E-04   1.70199609    
   7.11574182E-02  0.494910687      -8.18181783E-02   3.23010667E-04   1.70199609    
   7.11574182E-02  0.494910687     -0.163636401       3.23010667E-04   1.70199609    
  -7.11574182E-02  0.494910687     -0.163636401       3.23010667E-04   1.70199609    
 -0.207707494      0.454816014      -8.18181783E-02   570.927002       3.03378034    
  -7.11574182E-02  0.494910687      -8.18181783E-02   570.927002       3.03378034    
  -7.11574182E-02  0.494910687     -0.163636401       570.927002       3.03378034    
 -0.207707494      0.454816014     -0.163636401       570.927002       3.03378034    
 -0.327430397      0.377874792      -8.18181783E-02   1095.60181       3.03377986    
 -0.207707494      0.454816014      -8.18181783E-02   1095.60181       3.03377986    
 -0.207707494      0.454816014     -0.163636401       1095.60181       3.03377986    
 -0.327430397      0.377874792     -0.163636401       1095.60181       3.03377986    
 -0.420626789      0.270320386      -8.18181783E-02   1531.51672       3.03378034    
 -0.327430397      0.377874792      -8.18181783E-02   1531.51672       3.03378034    
 -0.327430397      0.377874792     -0.163636401       1531.51672       3.03378034    
 -0.420626789      0.270320386     -0.163636401       1531.51672       3.03378034    
 -0.479746491      0.140866295      -8.18181783E-02   1843.35706       3.03378010    
 -0.420626789      0.270320386      -8.18181783E-02   1843.35706       3.03378010    
 -0.420626789      0.270320386     -0.163636401       1843.35706       3.03378010    
 -0.479746491      0.140866295     -0.163636401       1843.35706       3.03378010    
 -0.500000000       2.84000009E-16  -8.18181783E-02   2005.85962       3.03378010    
 -0.479746491      0.140866295      -8.18181783E-02   2005.85962       3.03378010    
 -0.479746491      0.140866295     -0.163636401       2005.85962       3.03378010    
 -0.500000000       2.84000009E-16 -0.163636401       2005.85962       3.03378010    
  0.479746491      0.140866295     -0.163636401       1530.60486     -0.320732355    
  0.500000000       0.00000000     -0.163636401       1530.60486     -0.320732355    
  0.500000000       0.00000000     -0.245454505       1530.60486     -0.320732355    
  0.479746491      0.140866295     -0.245454505       1530.60486     -0.320732355    
  0.420626789      0.270320386     -0.163636401       1406.60388     -0.320732147    
  0.479746491      0.140866295     -0.163636401       1406.60388     -0.320732147    
  0.479746491      0.140866295     -0.245454505       1406.60388     -0.320732147    
  0.420626789      0.270320386     -0.245454505       1406.60388     -0.320732147    
  0.327430397      0.377874792     -0.163636401       1168.64893     -0.320732027    
  0.420626789      0.270320386     -0.163636401       1168.64893     -0.320732027    
  0.420626789      0.270320386     -0.245454505       1168.64893     -0.320732027    
  0.327430397      0.377874792     -0.245454505       1168.64893     -0.320732027    
  0.207707494      0.454816014     -0.163636401       836.016602     -0.320732653    
  0.327430397      0.377874792     -0.163636401       836.016602     -0.320732653    
  0.327430397      0.377874792     -0.245454505       836.016602     -0.320732653    
  0.207707494      0.454816014     -0.245454505       836.016602     -0.320732653    
   7.11574182E-02  0.494910687     -0.163636401       435.655304     -0.320731193    
  0.207707494      0.454816014     -0.163636401       435.655304     -0.320731193    
  0.207707494      0.454816014     -0.245454505       435.655304     -0.320731193    
   7.11574182E-02  0.494910687     -0.245454505       435.655304     -0.320731193    
  -7.11574182E-02  0.494910687     -0.163636401       1.96536668E-04   1.75162768    
   7.11574182E-02  0.494910687     -0.163636401       1.96536668E-04   1.75162768    
   7.11574182E-02  0.494910687     -0.245454505       1.96536668E-04   1.75162768    
  -7.11574182E-02  0.494910687     -0.245454505       1.96536668E-04   1.75162768    
 -0.207707494      0.454816014     -0.163636401       435.655365       2.82086039    
  -7.11574182E-02  0.494910687     -0.163636401       435.655365       2.82086039    
  -7.11574182E-02  0.494910687     -0.245454505       435.655365       2.82086039    
 -0.207707494      0.454816014     -0.245454505       435.655365       2.82086039    
 -0.327430397      0.377874792     -0.163636401       836.016479       2.82085967    
 -0.207707494      0.454816014     -0.163636401       836.016479       2.82085967    
 -0.207707494      0.454816014     -0.245454505       836.016479       2.82085967    
 -0.327430397      0.377874792     -0.245454505       836.016479       2.82085967    
 -0.420626789      0.270320386     -0.163636401       1168.64880       2.82086062    
 -0.327430397      0.377874792     -0.163636401       1168.64880       2.82086062    
 -0.327430397      0.377874792     -0.245454505       1168.64880       2.82086062    
 -0.420626789      0.270320386     -0.245454505       1168.64880       2.82086062    
 -0.479746491      0.140866295     -0.163636401       1406.60376       2.82086039    
 -0.420626789      0.270320386     -0.163636401       1406.60376       2.82086039    
 -0.420626789      0.270320386     -0.245454505       1406.60376       2.82086039    
 -0.479746491      0.140866295     -0.245454505       1406.60376       2.82086039    
 -0.500000000       2.84000009E-16 -0.163636401       1530.60461       2.82086015    
 -0.479746491      0.140866295     -0.163636401       1530.60461       2.82086015    
 -0.479746491      0.140866295     -0.245454505       1530.60461       2.82086015    
 -0.500000000       2.84000009E-16 -0.245454505       1530.60461       2.82086015    
  0.479746491      0.140866295     -0.245454505       1293.38232     -0.611560404    
  0.500000000       0.00000000     -0.245454505       1293.38232     -0.611560404    
  0.500000000       0.00000000     -0.327272713       1293.38232     -0.611560404    
  0.479746491      0.140866295     -0.327272713       1293.38232     -0.611560404    
  0.420626789      0.270320386     -0.245454505       1188.60022     -0.611560881    
  0.479746491      0.140866295     -0.245454505       1188.60022     -0.611560881    
  0.479746491      0.140866295     -0.327272713       1188.60022     -0.611560881    
  0.420626789      0.270320386     -0.327272713       1188.60022     -0.611560881    
  0.327430397      0.377874792     -0.245454505       987.524048     -0.611560345    
  0.420626789      0.270320386     -0.245454505       987.524048     -0.611560345    
  0.420626789      0.270320386     -0.327272713       987.524048     -0.611560345    
  0.327430397      0.377874792     -0.327272713       987.524048     -0.611560345    
  0.207707494      0.454816014     -0.245454505       706.445374     -0.611560404    
  0.327430397      0.377874792     -0.245454505       706.445374     -0.611560404    
  0.327430397      0.377874792     -0.327272713       706.445374     -0.611560404    
  0.207707494      0.454816014     -0.327272713       706.445374     -0.611560404    
   7.11574182E-02  0.494910687     -0.245454505       368.134460     -0.611559272    
  0.207707494      0.454816014     -0.245454505       368.134460     -0.611559272    
  0.207707494      0.454816014     -0.327272713       368.134460     -0.611559272    
   7.11574182E-02  0.494910687     -0.327272713       368.134460     -0.611559272    
  -7.11574182E-02  0.494910687     -0.245454505       2.27674303E-04   1.85419047    
   7.11574182E-02  0.494910687     -0.245454505       2.27674303E-04   1.85419047    
   7.11574182E-02  0.494910687     -0.327272713       2.27674303E-04   1.85419047    
  -7.11574182E-02  0.494910687     -0.327272713       2.27674303E-04   1.85419047    
 -0.207707494      0.454816014     -0.245454505       368.134705       2.53003287    
  -7.11574182E-02  0.494910687     -0.245454505       368.134705       2.53003287    
  -7.11574182E-02  0.494910687     -0.327272713       368.134705       2.53003287    
 -0.207707494      0.454816014     -0.327272713       368.134705       2.53003287    
 -0.327430397      0.377874792     -0.245454505       706.445740       2.53003192    
 -0.207707494      0.454816014     -0.245454505       706.445740       2.53003192    
 -0.207707494      0.454816014     -0.327272713       706.445740       2.53003192    
 -0.327430397      0.377874792     -0.327272713       706.445740       2.53003192    
 -0.420626789      0.270320386     -0.245454505       987.524231       2.53003240    
 -0.327430397      0.377874792     -0.245454505       987.524231       2.53003240    
 -0.327430397      0.377874792     -0.327272713       987.524231       2.53003240    
 -0.420626789      0.270320386     -0.327272713       987.524231       2.53003240    
 -0.479746491      0.140866295     -0.245454505       1188.60022       2.53003192    
 -0.420626789      0.270320386     -0.245454505       1188.60022       2.53003192    
 -0.420626789      0.270320386     -0.327272713       1188.60022       2.53003192    
 -0.479746491      0.140866295     -0.327272713       1188.60022       2.53003192    
 -0.500000000       2.84000009E-16 -0.245454505       1293.38232       2.53003216    
 -0.479746491      0.140866295     -0.245454505       1293.38232       2.53003216    
 -0.479746491      0.140866295     -0.327272713       1293.38232       2.53003216    
 -0.500000000       2.84000009E-16 -0.327272713       1293.38232       2.53003216    
  0.479746491      0.140866295     -0.327272713       1242.70886     -0.899279058    
  0.500000000       0.00000000     -0.327272713       1242.70886     -0.899279058    
  0.500000000       0.00000000     -0.409090906       1242.70886     -0.899279058    
  0.479746491      0.140866295     -0.409090906       1242.70886     -0.899279058    
  0.420626789      0.270320386     -0.327272713       1142.03088     -0.899278760    
  0.479746491      0.140866295     -0.327272713       1142.03088     -0.899278760    
  0.479746491      0.140866295     -0.409090906       1142.03088     -0.899278760    
  0.420626789      0.270320386     -0.409090906       1142.03088     -0.899278760    
  0.327430397      0.377874792     -0.327272713       948.834045     -0.899278939    
  0.420626789      0.270320386     -0.327272713       948.834045     -0.899278939    
  0.420626789      0.270320386     -0.409090906       948.834045     -0.899278939    
  0.327430397      0.377874792     -0.409090906       948.834045     -0.899278939    
  0.207707494      0.454816014     -0.327272713       678.767883     -0.899279177    
  0.327430397      0.377874792     -0.327272713       678.767883     -0.899279177    
  0.327430397      0.377874792     -0.409090906       678.767883     -0.899279177    
  0.207707494      0.454816014     -0.409090906       678.767883     -0.899279177    
   7.11574182E-02  0.494910687     -0.327272713       353.711548     -0.899278522    
  0.207707494      0.454816014     -0.327272713       353.711548     -0.899278522    
  0.207707494      0.454816014     -0.409090906       353.711548     -0.899278522    
   7.11574182E-02  0.494910687     -0.409090906       353.711548     -0.899278522    
  -7.11574182E-02  0.494910687     -0.327272713       1.64829806E-04   1.84271514    
   7.11574182E-02  0.494910687     -0.327272713       1.64829806E-04   1.84271514    
   7.11574182E-02  0.494910687     -0.409090906       1.64829806E-04   1.84271514    
  -7.11574182E-02  0.494910687     -0.409090906       1.64829806E-04   1.84271514    
 -0.207707494      0.454816014     -0.327272713       353.711700       2.24231410    
  -7.11574182E-02  0.494910687     -0.327272713       353.711700       2.24231410    
  -7.11574182E-02  0.494910687     -0.409090906       353.711700       2.24231410    
 -0.207707494      0.454816014     -0.409090906       353.711700       2.24231410    
 -0.327430397      0.377874792     -0.327272713       678.768066       2.24231362    
 -0.207707494      0.454816014     -0.327272713       678.768066       2.24231362    
 -0.207707494      0.454816014     -0.409090906       678.768066       2.24231362    
 -0.327430397      0.377874792     -0.409090906       678.768066       2.24231362    
 -0.420626789      0.270320386     -0.327272713       948.834167       2.24231362    
 -0.327430397      0.377874792     -0.327272713       948.834167       2.24231362    
 -0.327430397      0.377874792     -0.409090906       948.834167       2.24231362    
 -0.420626789      0.270320386     -0.409090906       948.834167       2.24231362    
 -0.479746491      0.140866295     -0.327272713       1142.03101       2.24231386    
 -0.420626789      0.270320386     -0.327272713       1142.03101       2.24231386    
 -0.420626789      0.270320386     -0.409090906       1142.03101       2.24231386    
 -0.479746491      0.140866295     -0.409090906       1142.03101       2.24231386    
 -0.500000000       2.84000009E-16 -0.327272713       1242.70850       2.24231362    
 -0.479746491      0.140866295     -0.327272713       1242.70850       2.24231362    
 -0.479746491      0.140866295     -0.409090906       1242.70850       2.24231362    
 -0.500000000       2.84000009E-16 -0.409090906       1242.70850       2.24231362    
  0.479746491      0.140866295     -0.409090906       1293.49792      -1.11832225    
  0.500000000       0.00000000     -0.409090906       1293.49792      -1.11832225    
  0.500000000       0.00000000     -0.490909100       1293.49792      -1.11832225    
  0.479746491      0.140866295     -0.490909100       1293.49792      -1.11832225    
  0.420626789      0.270320386     -0.409090906       1188.70581      -1.11832225    
  0.479746491      0.140866295     -0.409090906       1188.70581      -1.11832225    
  0.479746491      0.140866295     -0.490909100       1188.70581      -1.11832225    
  0.420626789      0.270320386     -0.490909100       1188.70581      -1.11832225    
  0.327430397      0.377874792     -0.409090906       987.612610      -1.11832201    
  0.420626789      0.270320386     -0.409090906       987.612610      -1.11832201    
  0.420626789      0.270320386     -0.490909100       987.612610      -1.11832201    
  0.327430397      0.377874792     -0.490909100       987.612610      -1.11832201    
  0.207707494      0.454816014     -0.409090906       706.508667      -1.11832225    
  0.327430397      0.377874792     -0.409090906       706.508667      -1.11832225    
  0.327430397      0.377874792     -0.490909100       706.508667      -1.11832225    
  0.207707494      0.454816014     -0.490909100       706.508667      -1.11832225    
   7.11574182E-02  0.494910687     -0.409090906       368.167694      -1.11832201    
  0.207707494      0.454816014     -0.409090906       368.167694      -1.11832201    
  0.207707494      0.454816014     -0.490909100       368.167694      -1.11832201    
   7.11574182E-02  0.494910687     -0.490909100       368.167694      -1.11832201    
  -7.11574182E-02  0.494910687     -0.409090906       3.83373845E-05  -2.82210350    
   7.11574182E-02  0.494910687     -0.409090906       3.83373845E-05  -2.82210350    
   7.11574182E-02  0.494910687     -0.490909100       3.83373845E-05  -2.82210350    
  -7.11574182E-02  0.494910687     -0.490909100       3.83373845E-05  -2.82210350    
 -0.207707494      0.454816014     -0.409090906       368.167664       2.02327085    
  -7.11574182E-02  0.494910687     -0.409090906       368.167664       2.02327085    
  -7.11574182E-02  0.494910687     -0.490909100       368.167664       2.02327085    
 -0.207707494      0.454816014     -0.490909100       368.167664       2.02327085    
 -0.327430397      0.377874792     -0.409090906       706.508789       2.02327037    
 -0.207707494      0.454816014     -0.409090906       706.508789       2.02327037    
 -0.207707494      0.454816014     -0.490909100       706.508789       2.02327037    
 -0.327430397      0.377874792     -0.490909100       706.508789       2.02327037    
 -0.420626789      0.270320386     -0.409090906       987.612732       2.02327061    
 -0.327430397      0.377874792     -0.409090906       987.612732       2.02327061    
 -0.327430397      0.377874792     -0.490909100       987.612732       2.02327061    
 -0.420626789      0.270320386     -0.490909100       987.612732       2.02327061    
 -0.479746491      0.140866295     -0.409090906       1188.70581       2.02327037    
 -0.420626789      0.270320386     -0.409090906       1188.70581       2.02327037    
 -0.420626789      0.270320386     -0.490909100       1188.70581       2.02327037    
 -0.479746491      0.140866295     -0.490909100       1188.70581       2.02327037    
 -0.500000000       2.84000009E-16 -0.409090906       1293.49768       2.02327037    
 -0.479746491      0.140866295     -0.409090906       1293.49768       2.02327037    
 -0.479746491      0.140866295     -0.490909100       1293.49768       2.02327037    
 -0.500000000       2.84000009E-16 -0.490909100       1293.49768       2.02327037    
  0.479746491      0.140866295     -0.490909100       1373.45593      -1.26325381    
  0.500000000       0.00000000     -0.490909100       1373.45593      -1.26325381    
  0.500000000       0.00000000     -0.572727323       1373.45593      -1.26325381    
  0.479746491      0.140866295     -0.572727323       1373.45593      -1.26325381    
  0.420626789      0.270320386     -0.490909100       1262.18738      -1.26325405    
  0.479746491      0.140866295     -0.490909100       1262.18738      -1.26325405    
  0.479746491      0.140866295     -0.572727323       1262.18738      -1.26325405    
  0.420626789      0.270320386     -0.572727323       1262.18738      -1.26325405    
  0.327430397      0.377874792     -0.490909100       1048.66272      -1.26325405    
  0.420626789      0.270320386     -0.490909100       1048.66272      -1.26325405    
  0.420626789      0.270320386     -0.572727323       1048.66272      -1.26325405    
  0.327430397      0.377874792     -0.572727323       1048.66272      -1.26325405    
  0.207707494      0.454816014     -0.490909100       750.182373      -1.26325405    
  0.327430397      0.377874792     -0.490909100       750.182373      -1.26325405    
  0.327430397      0.377874792     -0.572727323       750.182373      -1.26325405    
  0.207707494      0.454816014     -0.572727323       750.182373      -1.26325405    
   7.11574182E-02  0.494910687     -0.490909100       390.926270      -1.26325393    
  0.207707494      0.454816014     -0.490909100       390.926270      -1.26325393    
  0.207707494      0.454816014     -0.572727323       390.926270      -1.26325393    
   7.11574182E-02  0.494910687     -0.572727323       390.926270      -1.26325393    
  -7.11574182E-02  0.494910687     -0.490909100       6.45019245E-05  -1.93523097    
   7.11574182E-02  0.494910687     -0.490909100       6.45019245E-05  -1.93523097    
   7.11574182E-02  0.494910687     -0.572727323       6.45019245E-05  -1.93523097    
  -7.11574182E-02  0.494910687     -0.572727323       6.45019245E-05  -1.93523097    
 -0.207707494      0.454816014     -0.490909100       390.926147       1.87833905    
  -7.11574182E-02  0.494910687     -0.490909100       390.926147       1.87833905    
  -7.11574182E-02  0.494910687     -0.572727323       390.926147       1.87833905    
 -0.207707494      0.454816014     -0.572727323       390.926147       1.87833905    
 -0.327430397      0.377874792     -0.490909100       750.182251       1.87833869    
 -0.207707494      0.454816014     -0.490909100       750.182251       1.87833869    
 -0.207707494      0.454816014     -0.572727323       750.182251       1.87833869    
 -0.327430397      0.377874792     -0.572727323       750.182251       1.87833869    
 -0.420626789      0.270320386     -0.490909100       1048.66248       1.87833869    
 -0.327430397      0.377874792     -0.490909100       1048.66248       1.87833869    
 -0.327430397      0.377874792     -0.572727323       1048.66248       1.87833869    
 -0.420626789      0.270320386     -0.572727323       1048.66248       1.87833869    
 -0.479746491      0.140866295     -0.490909100       1262.18738       1.87833858    
 -0.420626789      0.270320386     -0.490909100       1262.18738       1.87833858    
 -0.420626789      0.270320386     -0.572727323       1262.18738       1.87833858    
 -0.479746491      0.140866295     -0.572727323       1262.18738       1.87833858    
 -0.500000000       2.84000009E-16 -0.490909100       1373.45569       1.87833905    
 -0.479746491      0.140866295     -0.490909100       1373.45569       1.87833905    
 -0.479746491      0.140866295     -0.572727323       1373.45569       1.87833905    
 -0.500000000       2.84000009E-16 -0.572727323       1373.45569       1.87833905    
  0.479746491      0.140866295     -0.572727323       1439.26526      -1.35512936    
  0.500000000       0.00000000     -0.572727323       1439.26526      -1.35512936    
  0.500000000       0.00000000     -0.654545426       1439.26526      -1.35512936    
  0.479746491      0.140866295     -0.654545426       1439.26526      -1.35512936    
  0.420626789      0.270320386     -0.572727323       1322.66418      -1.35512924    
  0.479746491      0.140866295     -0.572727323       1322.66418      -1.35512924    
  0.479746491      0.140866295     -0.654545426       1322.66418      -1.35512924    
  0.420626789      0.270320386     -0.654545426       1322.66418      -1.35512924    
  0.327430397      0.377874792     -0.572727323       1098.90869      -1.35512924    
  0.420626789      0.270320386     -0.572727323       1098.90869      -1.35512924    
  0.420626789      0.270320386     -0.654545426       1098.90869      -1.35512924    
  0.327430397      0.377874792     -0.654545426       1098.90869      -1.35512924    
  0.207707494      0.454816014     -0.572727323       786.126587      -1.35512924    
  0.327430397      0.377874792     -0.572727323       786.126587      -1.35512924    
  0.327430397      0.377874792     -0.654545426       786.126587      -1.35512924    
  0.207707494      0.454816014     -0.654545426       786.126587      -1.35512924    
   7.11574182E-02  0.494910687     -0.572727323       409.656891      -1.35512900    
  0.207707494      0.454816014     -0.572727323       409.656891      -1.35512900    
  0.207707494      0.454816014     -0.654545426       409.656891      -1.35512900    
   7.11574182E-02  0.494910687     -0.654545426       409.656891      -1.35512900    
  -7.11574182E-02  0.494910687     -0.572727323       6.99606026E-05   1.83284831    
   7.11574182E-02  0.494910687     -0.572727323       6.99606026E-05   1.83284831    
   7.11574182E-02  0.494910687     -0.654545426       6.99606026E-05   1.83284831    
  -7.11574182E-02  0.494910687     -0.654545426       6.99606026E-05   1.83284831    
 -0.207707494      0.454816014     -0.572727323       409.657013       1.78646374    
  -7.11574182E-02  0.494910687     -0.572727323       409.657013       1.78646374    
  -7.11574182E-02  0.494910687     -0.654545426       409.657013       1.78646374    
 -0.207707494      0.454816014     -0.654545426       409.657013       1.78646374    
 -0.327430397      0.377874792     -0.572727323       786.126587       1.78646350    
 -0.207707494      0.454816014     -0.572727323       786.126587       1.78646350    
 -0.207707494      0.454816014     -0.654545426       786.126587       1.78646350    
 -0.327430397      0.377874792     -0.654545426       786.126587       1.78646350    
 -0.420626789      0.270320386     -0.572727323       1098.90833       1.78646350    
 -0.327430397      0.377874792     -0.572727323       1098.90833       1.78646350    
 -0.327430397      0.377874792     -0.654545426       1098.90833       1.78646350    
 -0.420626789      0.270320386     -0.654545426       1098.90833       1.78646350    
 -0.479746491      0.140866295     -0.572727323       1322.66418       1.78646338    
 -0.420626789      0.270320386     -0.572727323       1322.66418       1.78646338    
 -0.420626789      0.270320386     -0.654545426       1322.66418       1.78646338    