 VARIABLES="X" "Y" "Z" "abs(p) (Pa)" "angle(p) (rad)"
ZONE N=    528,E =     462, F=FEPOINT, ET=QUADRILATERAL
  0.479746491      0.140866295       0.00000000       59.9594841      -1.54764378    
  0.500000000       0.00000000       0.00000000       59.9594841      -1.54764378    
  0.500000000       0.00000000      -8.18181783E-02   59.9594841      -1.54764378    
  0.479746491      0.140866295      -8.18181783E-02   59.9594841      -1.54764378    
  0.420626789      0.270320386       0.00000000       175.021133      -1.54764390    
  0.479746491      0.140866295       0.00000000       175.021133      -1.54764390    
  0.479746491      0.140866295      -8.18181783E-02   175.021133      -1.54764390    
  0.420626789      0.270320386      -8.18181783E-02   175.021133      -1.54764390    
  0.327430397      0.377874792       0.00000000       275.902527      -1.54764390    
  0.420626789      0.270320386       0.00000000       275.902527      -1.54764390    
  0.420626789      0.270320386      -8.18181783E-02   275.902527      -1.54764390    
  0.327430397      0.377874792      -8.18181783E-02   275.902527      -1.54764390    
  0.207707494      0.454816014       0.00000000       354.433319      -1.54764497    
  0.327430397      0.377874792       0.00000000       354.433319      -1.54764497    
  0.327430397      0.377874792      -8.18181783E-02   354.433319      -1.54764497    
  0.207707494      0.454816014      -8.18181783E-02   354.433319      -1.54764497    
   7.11574182E-02  0.494910687       0.00000000       404.248962      -1.54764426    
  0.207707494      0.454816014       0.00000000       404.248962      -1.54764426    
  0.207707494      0.454816014      -8.18181783E-02   404.248962      -1.54764426    
   7.11574182E-02  0.494910687      -8.18181783E-02   404.248962      -1.54764426    
  -7.11574182E-02  0.494910687       0.00000000       421.315674      -1.54764414    
   7.11574182E-02  0.494910687       0.00000000       421.315674      -1.54764414    
   7.11574182E-02  0.494910687      -8.18181783E-02   421.315674      -1.54764414    
  -7.11574182E-02  0.494910687      -8.18181783E-02   421.315674      -1.54764414    
 -0.207707494      0.454816014       0.00000000       404.249084      -1.54764438    
  -7.11574182E-02  0.494910687       0.00000000       404.249084      -1.54764438    
  -7.11574182E-02  0.494910687      -8.18181783E-02   404.249084      -1.54764438    
 -0.207707494      0.454816014      -8.18181783E-02   404.249084      -1.54764438    
 -0.327430397      0.377874792       0.00000000       354.433319      -1.54764473    
 -0.207707494      0.454816014       0.00000000       354.433319      -1.54764473    
 -0.207707494      0.454816014      -8.18181783E-02   354.433319      -1.54764473    
 -0.327430397      0.377874792      -8.18181783E-02   354.433319      -1.54764473    
 -0.420626789      0.270320386       0.00000000       275.902557      -1.54764426    
 -0.327430397      0.377874792       0.00000000       275.902557      -1.54764426    
 -0.327430397      0.377874792      -8.18181783E-02   275.902557      -1.54764426    
 -0.420626789      0.270320386      -8.18181783E-02   275.902557      -1.54764426    
 -0.479746491      0.140866295       0.00000000       175.021332      -1.54764366    
 -0.420626789      0.270320386       0.00000000       175.021332      -1.54764366    
 -0.420626789      0.270320386      -8.18181783E-02   175.021332      -1.54764366    
 -0.479746491      0.140866295      -8.18181783E-02   175.021332      -1.54764366    
 -0.500000000       2.84000009E-16   0.00000000       59.9595795      -1.54764378    
 -0.479746491      0.140866295       0.00000000       59.9595795      -1.54764378    
 -0.479746491      0.140866295      -8.18181783E-02   59.9595795      -1.54764378    
 -0.500000000       2.84000009E-16  -8.18181783E-02   59.9595795      -1.54764378    
  0.479746491      0.140866295      -8.18181783E-02   59.7004204      -1.54766130    
  0.500000000       0.00000000      -8.18181783E-02   59.7004204      -1.54766130    
  0.500000000       0.00000000     -0.163636401       59.7004204      -1.54766130    
  0.479746491      0.140866295     -0.163636401       59.7004204      -1.54766130    
  0.420626789      0.270320386      -8.18181783E-02   174.264465      -1.54766297    
  0.479746491      0.140866295      -8.18181783E-02   174.264465      -1.54766297    
  0.479746491      0.140866295     -0.163636401       174.264465      -1.54766297    
  0.420626789      0.270320386     -0.163636401       174.264465      -1.54766297    
  0.327430397      0.377874792      -8.18181783E-02   274.710083      -1.54766273    
  0.420626789      0.270320386      -8.18181783E-02   274.710083      -1.54766273    
  0.420626789      0.270320386     -0.163636401       274.710083      -1.54766273    
  0.327430397      0.377874792     -0.163636401       274.710083      -1.54766273    
  0.207707494      0.454816014      -8.18181783E-02   352.901398      -1.54766321    
  0.327430397      0.377874792      -8.18181783E-02   352.901398      -1.54766321    
  0.327430397      0.377874792     -0.163636401       352.901398      -1.54766321    
  0.207707494      0.454816014     -0.163636401       352.901398      -1.54766321    
   7.11574182E-02  0.494910687      -8.18181783E-02   402.502075      -1.54766226    
  0.207707494      0.454816014      -8.18181783E-02   402.502075      -1.54766226    
  0.207707494      0.454816014     -0.163636401       402.502075      -1.54766226    
   7.11574182E-02  0.494910687     -0.163636401       402.502075      -1.54766226    
  -7.11574182E-02  0.494910687      -8.18181783E-02   419.494324      -1.54766178    
   7.11574182E-02  0.494910687      -8.18181783E-02   419.494324      -1.54766178    
   7.11574182E-02  0.494910687     -0.163636401       419.494324      -1.54766178    
  -7.11574182E-02  0.494910687     -0.163636401       419.494324      -1.54766178    
 -0.207707494      0.454816014      -8.18181783E-02   402.501953      -1.54766226    
  -7.11574182E-02  0.494910687      -8.18181783E-02   402.501953      -1.54766226    
  -7.11574182E-02  0.494910687     -0.163636401       402.501953      -1.54766226    
 -0.207707494      0.454816014     -0.163636401       402.501953      -1.54766226    
 -0.327430397      0.377874792      -8.18181783E-02   352.901459      -1.54766297    
 -0.207707494      0.454816014      -8.18181783E-02   352.901459      -1.54766297    
 -0.207707494      0.454816014     -0.163636401       352.901459      -1.54766297    
 -0.327430397      0.377874792     -0.163636401       352.901459      -1.54766297    
 -0.420626789      0.270320386      -8.18181783E-02   274.710266      -1.54766262    
 -0.327430397      0.377874792      -8.18181783E-02   274.710266      -1.54766262    
 -0.327430397      0.377874792     -0.163636401       274.710266      -1.54766262    
 -0.420626789      0.270320386     -0.163636401       274.710266      -1.54766262    
 -0.479746491      0.140866295      -8.18181783E-02   174.264542      -1.54766309    
 -0.420626789      0.270320386      -8.18181783E-02   174.264542      -1.54766309    
 -0.420626789      0.270320386     -0.163636401       174.264542      -1.54766309    
 -0.479746491      0.140866295     -0.163636401       174.264542      -1.54766309    
 -0.500000000       2.84000009E-16  -8.18181783E-02   59.7003708      -1.54766333    
 -0.479746491      0.140866295      -8.18181783E-02   59.7003708      -1.54766333    
 -0.479746491      0.140866295     -0.163636401       59.7003708      -1.54766333    
 -0.500000000       2.84000009E-16 -0.163636401       59.7003708      -1.54766333    
  0.479746491      0.140866295     -0.163636401       59.3265495      -1.54766059    
  0.500000000       0.00000000     -0.163636401       59.3265495      -1.54766059    
  0.500000000       0.00000000     -0.245454505       59.3265495      -1.54766059    
  0.479746491      0.140866295     -0.245454505       59.3265495      -1.54766059    
  0.420626789      0.270320386     -0.163636401       173.173309      -1.54765892    
  0.479746491      0.140866295     -0.163636401       173.173309      -1.54765892    
  0.479746491      0.140866295     -0.245454505       173.173309      -1.54765892    
  0.420626789      0.270320386     -0.245454505       173.173309      -1.54765892    
  0.327430397      0.377874792     -0.163636401       272.991058      -1.54765785    
  0.420626789      0.270320386     -0.163636401       272.991058      -1.54765785    
  0.420626789      0.270320386     -0.245454505       272.991058      -1.54765785    
  0.327430397      0.377874792     -0.245454505       272.991058      -1.54765785    
  0.207707494      0.454816014     -0.163636401       350.692444      -1.54765880    
  0.327430397      0.377874792     -0.163636401       350.692444      -1.54765880    
  0.327430397      0.377874792     -0.245454505       350.692444      -1.54765880    
  0.207707494      0.454816014     -0.245454505       350.692444      -1.54765880    
   7.11574182E-02  0.494910687     -0.163636401       399.982452      -1.54765856    
  0.207707494      0.454816014     -0.163636401       399.982452      -1.54765856    
  0.207707494      0.454816014     -0.245454505       399.982452      -1.54765856    
   7.11574182E-02  0.494910687     -0.245454505       399.982452      -1.54765856    
  -7.11574182E-02  0.494910687     -0.163636401       416.868591      -1.54765797    
   7.11574182E-02  0.494910687     -0.163636401       416.868591      -1.54765797    
   7.11574182E-02  0.494910687     -0.245454505       416.868591      -1.54765797    
  -7.11574182E-02  0.494910687     -0.245454505       416.868591      -1.54765797    
 -0.207707494      0.454816014     -0.163636401       399.982635      -1.54765856    
  -7.11574182E-02  0.494910687     -0.163636401       399.982635      -1.54765856    
  -7.11574182E-02  0.494910687     -0.245454505       399.982635      -1.54765856    
 -0.207707494      0.454816014     -0.245454505       399.982635      -1.54765856    
 -0.327430397      0.377874792     -0.163636401       350.692352      -1.54765880    
 -0.207707494      0.454816014     -0.163636401       350.692352      -1.54765880    
 -0.207707494      0.454816014     -0.245454505       350.692352      -1.54765880    
 -0.327430397      0.377874792     -0.245454505       350.692352      -1.54765880    
 -0.420626789      0.270320386     -0.163636401       272.991150      -1.54765809    
 -0.327430397      0.377874792     -0.163636401       272.991150      -1.54765809    
 -0.327430397      0.377874792     -0.245454505       272.991150      -1.54765809    
 -0.420626789      0.270320386     -0.245454505       272.991150      -1.54765809    
 -0.479746491      0.140866295     -0.163636401       173.173340      -1.54765809    
 -0.420626789      0.270320386     -0.163636401       173.173340      -1.54765809    
 -0.420626789      0.270320386     -0.245454505       173.173340      -1.54765809    
 -0.479746491      0.140866295     -0.245454505       173.173340      -1.54765809    
 -0.500000000       2.84000009E-16 -0.163636401       59.3264999      -1.54766142    
 -0.479746491      0.140866295     -0.163636401       59.3264999      -1.54766142    
 -0.479746491      0.140866295     -0.245454505       59.3264999      -1.54766142    
 -0.500000000       2.84000009E-16 -0.245454505       59.3264999      -1.54766142    
  0.479746491      0.140866295     -0.245454505       58.8700562      -1.54763234    
  0.500000000       0.00000000     -0.245454505       58.8700562      -1.54763234    
  0.500000000       0.00000000     -0.327272713       58.8700562      -1.54763234    
  0.479746491      0.140866295     -0.327272713       58.8700562      -1.54763234    
  0.420626789      0.270320386     -0.245454505       171.842407      -1.54763508    
  0.479746491      0.140866295     -0.245454505       171.842407      -1.54763508    
  0.479746491      0.140866295     -0.327272713       171.842407      -1.54763508    
  0.420626789      0.270320386     -0.327272713       171.842407      -1.54763508    
  0.327430397      0.377874792     -0.245454505       270.892120      -1.54763448    
  0.420626789      0.270320386     -0.245454505       270.892120      -1.54763448    
  0.420626789      0.270320386     -0.327272713       270.892120      -1.54763448    
  0.327430397      0.377874792     -0.327272713       270.892120      -1.54763448    
  0.207707494      0.454816014     -0.245454505       347.995972      -1.54763472    
  0.327430397      0.377874792     -0.245454505       347.995972      -1.54763472    
  0.327430397      0.377874792     -0.327272713       347.995972      -1.54763472    
  0.207707494      0.454816014     -0.327272713       347.995972      -1.54763472    
   7.11574182E-02  0.494910687     -0.245454505       396.907349      -1.54763424    
  0.207707494      0.454816014     -0.245454505       396.907349      -1.54763424    
  0.207707494      0.454816014     -0.327272713       396.907349      -1.54763424    
   7.11574182E-02  0.494910687     -0.327272713       396.907349      -1.54763424    
  -7.11574182E-02  0.494910687     -0.245454505       413.663361      -1.54763448    
   7.11574182E-02  0.494910687     -0.245454505       413.663361      -1.54763448    
   7.11574182E-02  0.494910687     -0.327272713       413.663361      -1.54763448    
  -7.11574182E-02  0.494910687     -0.327272713       413.663361      -1.54763448    
 -0.207707494      0.454816014     -0.245454505       396.907288      -1.54763436    
  -7.11574182E-02  0.494910687     -0.245454505       396.907288      -1.54763436    
  -7.11574182E-02  0.494910687     -0.327272713       396.907288      -1.54763436    
 -0.207707494      0.454816014     -0.327272713       396.907288      -1.54763436    
 -0.327430397      0.377874792     -0.245454505       347.995941      -1.54763472    
 -0.207707494      0.454816014     -0.245454505       347.995941      -1.54763472    
 -0.207707494      0.454816014     -0.327272713       347.995941      -1.54763472    
 -0.327430397      0.377874792     -0.327272713       347.995941      -1.54763472    
 -0.420626789      0.270320386     -0.245454505       270.892181      -1.54763412    
 -0.327430397      0.377874792     -0.245454505       270.892181      -1.54763412    
 -0.327430397      0.377874792     -0.327272713       270.892181      -1.54763412    
 -0.420626789      0.270320386     -0.327272713       270.892181      -1.54763412    
 -0.479746491      0.140866295     -0.245454505       171.842560      -1.54763401    
 -0.420626789      0.270320386     -0.245454505       171.842560      -1.54763401    
 -0.420626789      0.270320386     -0.327272713       171.842560      -1.54763401    
 -0.479746491      0.140866295     -0.327272713       171.842560      -1.54763401    
 -0.500000000       2.84000009E-16 -0.245454505       58.8701096      -1.54763114    
 -0.479746491      0.140866295     -0.245454505       58.8701096      -1.54763114    
 -0.479746491      0.140866295     -0.327272713       58.8701096      -1.54763114    
 -0.500000000       2.84000009E-16 -0.327272713       58.8701096      -1.54763114    
  0.479746491      0.140866295     -0.327272713       58.3010941      -1.54758310    
  0.500000000       0.00000000     -0.327272713       58.3010941      -1.54758310    
  0.500000000       0.00000000     -0.409090906       58.3010941      -1.54758310    
  0.479746491      0.140866295     -0.409090906       58.3010941      -1.54758310    
  0.420626789      0.270320386     -0.327272713       170.179520      -1.54758310    
  0.479746491      0.140866295     -0.327272713       170.179520      -1.54758310    
  0.479746491      0.140866295     -0.409090906       170.179520      -1.54758310    
  0.420626789      0.270320386     -0.409090906       170.179520      -1.54758310    
  0.327430397      0.377874792     -0.327272713       268.270935      -1.54758239    
  0.420626789      0.270320386     -0.327272713       268.270935      -1.54758239    
  0.420626789      0.270320386     -0.409090906       268.270935      -1.54758239    
  0.327430397      0.377874792     -0.409090906       268.270935      -1.54758239    
  0.207707494      0.454816014     -0.327272713       344.629028      -1.54758203    
  0.327430397      0.377874792     -0.327272713       344.629028      -1.54758203    
  0.327430397      0.377874792     -0.409090906       344.629028      -1.54758203    
  0.207707494      0.454816014     -0.409090906       344.629028      -1.54758203    
   7.11574182E-02  0.494910687     -0.327272713       393.066559      -1.54758310    
  0.207707494      0.454816014     -0.327272713       393.066559      -1.54758310    
  0.207707494      0.454816014     -0.409090906       393.066559      -1.54758310    
   7.11574182E-02  0.494910687     -0.409090906       393.066559      -1.54758310    
  -7.11574182E-02  0.494910687     -0.327272713       409.661102      -1.54758215    
   7.11574182E-02  0.494910687     -0.327272713       409.661102      -1.54758215    
   7.11574182E-02  0.494910687     -0.409090906       409.661102      -1.54758215    
  -7.11574182E-02  0.494910687     -0.409090906       409.661102      -1.54758215    
 -0.207707494      0.454816014     -0.327272713       393.066742      -1.54758358    
  -7.11574182E-02  0.494910687     -0.327272713       393.066742      -1.54758358    
  -7.11574182E-02  0.494910687     -0.409090906       393.066742      -1.54758358    
 -0.207707494      0.454816014     -0.409090906       393.066742      -1.54758358    
 -0.327430397      0.377874792     -0.327272713       344.629089      -1.54758251    
 -0.207707494      0.454816014     -0.327272713       344.629089      -1.54758251    
 -0.207707494      0.454816014     -0.409090906       344.629089      -1.54758251    
 -0.327430397      0.377874792     -0.409090906       344.629089      -1.54758251    
 -0.420626789      0.270320386     -0.327272713       268.270996      -1.54758322    
 -0.327430397      0.377874792     -0.327272713       268.270996      -1.54758322    
 -0.327430397      0.377874792     -0.409090906       268.270996      -1.54758322    
 -0.420626789      0.270320386     -0.409090906       268.270996      -1.54758322    
 -0.479746491      0.140866295     -0.327272713       170.179581      -1.54758251    
 -0.420626789      0.270320386     -0.327272713       170.179581      -1.54758251    
 -0.420626789      0.270320386     -0.409090906       170.179581      -1.54758251    
 -0.479746491      0.140866295     -0.409090906       170.179581      -1.54758251    
 -0.500000000       2.84000009E-16 -0.327272713       58.3009949      -1.54758596    
 -0.479746491      0.140866295     -0.327272713       58.3009949      -1.54758596    
 -0.479746491      0.140866295     -0.409090906       58.3009949      -1.54758596    
 -0.500000000       2.84000009E-16 -0.409090906       58.3009949      -1.54758596    
  0.479746491      0.140866295     -0.409090906       57.5785255      -1.54749417    
  0.500000000       0.00000000     -0.409090906       57.5785255      -1.54749417    
  0.500000000       0.00000000     -0.490909100       57.5785255      -1.54749417    
  0.479746491      0.140866295     -0.490909100       57.5785255      -1.54749417    
  0.420626789      0.270320386     -0.409090906       168.071060      -1.54749191    
  0.479746491      0.140866295     -0.409090906       168.071060      -1.54749191    
  0.479746491      0.140866295     -0.490909100       168.071060      -1.54749191    
  0.420626789      0.270320386     -0.490909100       168.071060      -1.54749191    
  0.327430397      0.377874792     -0.409090906       264.947937      -1.54749298    
  0.420626789      0.270320386     -0.409090906       264.947937      -1.54749298    
  0.420626789      0.270320386     -0.490909100       264.947937      -1.54749298    
  0.327430397      0.377874792     -0.490909100       264.947937      -1.54749298    
  0.207707494      0.454816014     -0.409090906       340.359863      -1.54749238    
  0.327430397      0.377874792     -0.409090906       340.359863      -1.54749238    
  0.327430397      0.377874792     -0.490909100       340.359863      -1.54749238    
  0.207707494      0.454816014     -0.490909100       340.359863      -1.54749238    
   7.11574182E-02  0.494910687     -0.409090906       388.198120      -1.54749274    
  0.207707494      0.454816014     -0.409090906       388.198120      -1.54749274    
  0.207707494      0.454816014     -0.490909100       388.198120      -1.54749274    
   7.11574182E-02  0.494910687     -0.490909100       388.198120      -1.54749274    
  -7.11574182E-02  0.494910687     -0.409090906       404.586761      -1.54749238    
   7.11574182E-02  0.494910687     -0.409090906       404.586761      -1.54749238    
   7.11574182E-02  0.494910687     -0.490909100       404.586761      -1.54749238    
  -7.11574182E-02  0.494910687     -0.490909100       404.586761      -1.54749238    
 -0.207707494      0.454816014     -0.409090906       388.198120      -1.54749274    
  -7.11574182E-02  0.494910687     -0.409090906       388.198120      -1.54749274    
  -7.11574182E-02  0.494910687     -0.490909100       388.198120      -1.54749274    
 -0.207707494      0.454816014     -0.490909100       388.198120      -1.54749274    
 -0.327430397      0.377874792     -0.409090906       340.359711      -1.54749286    
 -0.207707494      0.454816014     -0.409090906       340.359711      -1.54749286    
 -0.207707494      0.454816014     -0.490909100       340.359711      -1.54749286    
 -0.327430397      0.377874792     -0.490909100       340.359711      -1.54749286    
 -0.420626789      0.270320386     -0.409090906       264.947906      -1.54749274    
 -0.327430397      0.377874792     -0.409090906       264.947906      -1.54749274    
 -0.327430397      0.377874792     -0.490909100       264.947906      -1.54749274    
 -0.420626789      0.270320386     -0.490909100       264.947906      -1.54749274    
 -0.479746491      0.140866295     -0.409090906       168.071136      -1.54749167    
 -0.420626789      0.270320386     -0.409090906       168.071136      -1.54749167    
 -0.420626789      0.270320386     -0.490909100       168.071136      -1.54749167    
 -0.479746491      0.140866295     -0.490909100       168.071136      -1.54749167    
 -0.500000000       2.84000009E-16 -0.409090906       57.5785751      -1.54749203    
 -0.479746491      0.140866295     -0.409090906       57.5785751      -1.54749203    
 -0.479746491      0.140866295     -0.490909100       57.5785751      -1.54749203    
 -0.500000000       2.84000009E-16 -0.490909100       57.5785751      -1.54749203    
  0.479746491      0.140866295     -0.490909100       56.6311874      -1.54734278    
  0.500000000       0.00000000     -0.490909100       56.6311874      -1.54734278    
  0.500000000       0.00000000     -0.572727323       56.6311874      -1.54734278    
  0.479746491      0.140866295     -0.572727323       56.6311874      -1.54734278    
  0.420626789      0.270320386     -0.490909100       165.305664      -1.54734755    
  0.479746491      0.140866295     -0.490909100       165.305664      -1.54734755    
  0.479746491      0.140866295     -0.572727323       165.305664      -1.54734755    
  0.420626789      0.270320386     -0.572727323       165.305664      -1.54734755    
  0.327430397      0.377874792     -0.490909100       260.588043      -1.54734612    
  0.420626789      0.270320386     -0.490909100       260.588043      -1.54734612    
  0.420626789      0.270320386     -0.572727323       260.588043      -1.54734612    
  0.327430397      0.377874792     -0.572727323       260.588043      -1.54734612    
  0.207707494      0.454816014     -0.490909100       334.758728      -1.54734683    
  0.327430397      0.377874792     -0.490909100       334.758728      -1.54734683    
  0.327430397      0.377874792     -0.572727323       334.758728      -1.54734683    
  0.207707494      0.454816014     -0.572727323       334.758728      -1.54734683    
   7.11574182E-02  0.494910687     -0.490909100       381.809906      -1.54734623    
  0.207707494      0.454816014     -0.490909100       381.809906      -1.54734623    
  0.207707494      0.454816014     -0.572727323       381.809906      -1.54734623    
   7.11574182E-02  0.494910687     -0.572727323       381.809906      -1.54734623    
  -7.11574182E-02  0.494910687     -0.490909100       397.928589      -1.54734707    
   7.11574182E-02  0.494910687     -0.490909100       397.928589      -1.54734707    
   7.11574182E-02  0.494910687     -0.572727323       397.928589      -1.54734707    
  -7.11574182E-02  0.494910687     -0.572727323       397.928589      -1.54734707    
 -0.207707494      0.454816014     -0.490909100       381.809814      -1.54734635    
  -7.11574182E-02  0.494910687     -0.490909100       381.809814      -1.54734635    
  -7.11574182E-02  0.494910687     -0.572727323       381.809814      -1.54734635    
 -0.207707494      0.454816014     -0.572727323       381.809814      -1.54734635    
 -0.327430397      0.377874792     -0.490909100       334.758698      -1.54734683    
 -0.207707494      0.454816014     -0.490909100       334.758698      -1.54734683    
 -0.207707494      0.454816014     -0.572727323       334.758698      -1.54734683    
 -0.327430397      0.377874792     -0.572727323       334.758698      -1.54734683    
 -0.420626789      0.270320386     -0.490909100       260.588074      -1.54734623    
 -0.327430397      0.377874792     -0.490909100       260.588074      -1.54734623    
 -0.327430397      0.377874792     -0.572727323       260.588074      -1.54734623    
 -0.420626789      0.270320386     -0.572727323       260.588074      -1.54734623    
 -0.479746491      0.140866295     -0.490909100       165.305740      -1.54734743    
 -0.420626789      0.270320386     -0.490909100       165.305740      -1.54734743    
 -0.420626789      0.270320386     -0.572727323       165.305740      -1.54734743    
 -0.479746491      0.140866295     -0.572727323       165.305740      -1.54734743    
 -0.500000000       2.84000009E-16 -0.490909100       56.6310387      -1.54734194    
 -0.479746491      0.140866295     -0.490909100       56.6310387      -1.54734194    
 -0.479746491      0.140866295     -0.572727323       56.6310387      -1.54734194    
 -0.500000000       2.84000009E-16 -0.572727323       56.6310387      -1.54734194    
  0.479746491      0.140866295     -0.572727323       55.3490753      -1.54711175    
  0.500000000       0.00000000     -0.572727323       55.3490753      -1.54711175    
  0.500000000       0.00000000     -0.654545426       55.3490753      -1.54711175    
  0.479746491      0.140866295     -0.654545426       55.3490753      -1.54711175    
  0.420626789      0.270320386     -0.572727323       161.562805      -1.54711568    
  0.479746491      0.140866295     -0.572727323       161.562805      -1.54711568    
  0.479746491      0.140866295     -0.654545426       161.562805      -1.54711568    
  0.420626789      0.270320386     -0.654545426       161.562805      -1.54711568    
  0.327430397      0.377874792     -0.572727323       254.687286      -1.54711378    
  0.420626789      0.270320386     -0.572727323       254.687286      -1.54711378    
  0.420626789      0.270320386     -0.654545426       254.687286      -1.54711378    
  0.327430397      0.377874792     -0.654545426       254.687286      -1.54711378    
  0.207707494      0.454816014     -0.572727323       327.179657      -1.54711533    
  0.327430397      0.377874792     -0.572727323       327.179657      -1.54711533    
  0.327430397      0.377874792     -0.654545426       327.179657      -1.54711533    
  0.207707494      0.454816014     -0.654545426       327.179657      -1.54711533    
   7.11574182E-02  0.494910687     -0.572727323       373.164764      -1.54711461    
  0.207707494      0.454816014     -0.572727323       373.164764      -1.54711461    
  0.207707494      0.454816014     -0.654545426       373.164764      -1.54711461    
   7.11574182E-02  0.494910687     -0.654545426       373.164764      -1.54711461    
  -7.11574182E-02  0.494910687     -0.572727323       388.918457      -1.54711485    
   7.11574182E-02  0.494910687     -0.572727323       388.918457      -1.54711485    
   7.11574182E-02  0.494910687     -0.654545426       388.918457      -1.54711485    
  -7.11574182E-02  0.494910687     -0.654545426       388.918457      -1.54711485    
 -0.207707494      0.454816014     -0.572727323       373.164886      -1.54711497    
  -7.11574182E-02  0.494910687     -0.572727323       373.164886      -1.54711497    
  -7.11574182E-02  0.494910687     -0.654545426       373.164886      -1.54711497    
 -0.207707494      0.454816014     -0.654545426       373.164886      -1.54711497    
 -0.327430397      0.377874792     -0.572727323       327.179688      -1.54711509    
 -0.207707494      0.454816014     -0.572727323       327.179688      -1.54711509    
 -0.207707494      0.454816014     -0.654545426       327.179688      -1.54711509    
 -0.327430397      0.377874792     -0.654545426       327.179688      -1.54711509    
 -0.420626789      0.270320386     -0.572727323       254.687393      -1.54711413    
 -0.327430397      0.377874792     -0.572727323       254.687393      -1.54711413    
 -0.327430397      0.377874792     -0.654545426       254.687393      -1.54711413    
 -0.420626789      0.270320386     -0.654545426       254.687393      -1.54711413    
 -0.479746491      0.140866295     -0.572727323       161.562668      -1.54711556    
 -0.420626789      0.270320386     -0.572727323       161.562668      -1.54711556    
 -0.420626789      0.270320386     -0.654545426       161.562668      -1.54711556    