 VARIABLES="X" "Y" "Z" "abs(p) (Pa)" "angle(p) (rad)"
ZONE N=    528,E =     462, F=FEPOINT, ET=QUADRILATERAL
  0.479746491      0.140866295       0.00000000       1.17175873E-07   1.53058136    
  0.500000000       0.00000000       0.00000000       1.17175873E-07   1.53058136    
  0.500000000       0.00000000      -8.18181783E-02   1.17175873E-07   1.53058136    
  0.479746491      0.140866295      -8.18181783E-02   1.17175873E-07   1.53058136    
  0.420626789      0.270320386       0.00000000       3.71116698E-06  -1.56711030    
  0.479746491      0.140866295       0.00000000       3.71116698E-06  -1.56711030    
  0.479746491      0.140866295      -8.18181783E-02   3.71116698E-06  -1.56711030    
  0.420626789      0.270320386      -8.18181783E-02   3.71116698E-06  -1.56711030    
  0.327430397      0.377874792       0.00000000       1.16536251E-06   1.55249465    
  0.420626789      0.270320386       0.00000000       1.16536251E-06   1.55249465    
  0.420626789      0.270320386      -8.18181783E-02   1.16536251E-06   1.55249465    
  0.327430397      0.377874792      -8.18181783E-02   1.16536251E-06   1.55249465    
  0.207707494      0.454816014       0.00000000       5.07585582E-06  -1.56548131    
  0.327430397      0.377874792       0.00000000       5.07585582E-06  -1.56548131    
  0.327430397      0.377874792      -8.18181783E-02   5.07585582E-06  -1.56548131    
  0.207707494      0.454816014      -8.18181783E-02   5.07585582E-06  -1.56548131    
   7.11574182E-02  0.494910687       0.00000000       1.09917744E-06   1.54332769    
  0.207707494      0.454816014       0.00000000       1.09917744E-06   1.54332769    
  0.207707494      0.454816014      -8.18181783E-02   1.09917744E-06   1.54332769    
   7.11574182E-02  0.494910687      -8.18181783E-02   1.09917744E-06   1.54332769    
  -7.11574182E-02  0.494910687       0.00000000       2.86876940E-07  -1.46319401    
   7.11574182E-02  0.494910687       0.00000000       2.86876940E-07  -1.46319401    
   7.11574182E-02  0.494910687      -8.18181783E-02   2.86876940E-07  -1.46319401    
  -7.11574182E-02  0.494910687      -8.18181783E-02   2.86876940E-07  -1.46319401    
 -0.207707494      0.454816014       0.00000000       1.68752899E-06  -1.55365109    
  -7.11574182E-02  0.494910687       0.00000000       1.68752899E-06  -1.55365109    
  -7.11574182E-02  0.494910687      -8.18181783E-02   1.68752899E-06  -1.55365109    
 -0.207707494      0.454816014      -8.18181783E-02   1.68752899E-06  -1.55365109    
 -0.327430397      0.377874792       0.00000000       4.43300132E-06   1.56518912    
 -0.207707494      0.454816014       0.00000000       4.43300132E-06   1.56518912    
 -0.207707494      0.454816014      -8.18181783E-02   4.43300132E-06   1.56518912    
 -0.327430397      0.377874792      -8.18181783E-02   4.43300132E-06   1.56518912    
 -0.420626789      0.270320386       0.00000000       1.88229933E-06  -1.56068921    
 -0.327430397      0.377874792       0.00000000       1.88229933E-06  -1.56068921    
 -0.327430397      0.377874792      -8.18181783E-02   1.88229933E-06  -1.56068921    
 -0.420626789      0.270320386      -8.18181783E-02   1.88229933E-06  -1.56068921    
 -0.479746491      0.140866295       0.00000000       3.04611444E-06   1.56688392    
 -0.420626789      0.270320386       0.00000000       3.04611444E-06   1.56688392    
 -0.420626789      0.270320386      -8.18181783E-02   3.04611444E-06   1.56688392    
 -0.479746491      0.140866295      -8.18181783E-02   3.04611444E-06   1.56688392    
 -0.500000000       2.84000009E-16   0.00000000       3.83346418E-07  -1.56021285    
 -0.479746491      0.140866295       0.00000000       3.83346418E-07  -1.56021285    
 -0.479746491      0.140866295      -8.18181783E-02   3.83346418E-07  -1.56021285    
 -0.500000000       2.84000009E-16  -8.18181783E-02   3.83346418E-07  -1.56021285    
  0.479746491      0.140866295      -8.18181783E-02   1.67024794E-08  -1.28825033    
  0.500000000       0.00000000      -8.18181783E-02   1.67024794E-08  -1.28825033    
  0.500000000       0.00000000     -0.163636401       1.67024794E-08  -1.28825033    
  0.479746491      0.140866295     -0.163636401       1.67024794E-08  -1.28825033    
  0.420626789      0.270320386      -8.18181783E-02   4.10619487E-06  -1.56750357    
  0.479746491      0.140866295      -8.18181783E-02   4.10619487E-06  -1.56750357    
  0.479746491      0.140866295     -0.163636401       4.10619487E-06  -1.56750357    
  0.420626789      0.270320386     -0.163636401       4.10619487E-06  -1.56750357    
  0.327430397      0.377874792      -8.18181783E-02   7.00735825E-07   1.54071224    
  0.420626789      0.270320386      -8.18181783E-02   7.00735825E-07   1.54071224    
  0.420626789      0.270320386     -0.163636401       7.00735825E-07   1.54071224    
  0.327430397      0.377874792     -0.163636401       7.00735825E-07   1.54071224    
  0.207707494      0.454816014      -8.18181783E-02   5.32325157E-06  -1.56578732    
  0.327430397      0.377874792      -8.18181783E-02   5.32325157E-06  -1.56578732    
  0.327430397      0.377874792     -0.163636401       5.32325157E-06  -1.56578732    
  0.207707494      0.454816014     -0.163636401       5.32325157E-06  -1.56578732    
   7.11574182E-02  0.494910687      -8.18181783E-02   8.92548314E-07   1.53736103    
  0.207707494      0.454816014      -8.18181783E-02   8.92548314E-07   1.53736103    
  0.207707494      0.454816014     -0.163636401       8.92548314E-07   1.53736103    
   7.11574182E-02  0.494910687     -0.163636401       8.92548314E-07   1.53736103    
  -7.11574182E-02  0.494910687      -8.18181783E-02   2.84346356E-07  -1.46351194    
   7.11574182E-02  0.494910687      -8.18181783E-02   2.84346356E-07  -1.46351194    
   7.11574182E-02  0.494910687     -0.163636401       2.84346356E-07  -1.46351194    
  -7.11574182E-02  0.494910687     -0.163636401       2.84346356E-07  -1.46351194    
 -0.207707494      0.454816014      -8.18181783E-02   1.47766218E-06  -1.55144536    
  -7.11574182E-02  0.494910687      -8.18181783E-02   1.47766218E-06  -1.55144536    
  -7.11574182E-02  0.494910687     -0.163636401       1.47766218E-06  -1.55144536    
 -0.207707494      0.454816014     -0.163636401       1.47766218E-06  -1.55144536    
 -0.327430397      0.377874792      -8.18181783E-02   4.67192967E-06   1.56553805    
 -0.207707494      0.454816014      -8.18181783E-02   4.67192967E-06   1.56553805    
 -0.207707494      0.454816014     -0.163636401       4.67192967E-06   1.56553805    
 -0.327430397      0.377874792     -0.163636401       4.67192967E-06   1.56553805    
 -0.420626789      0.270320386      -8.18181783E-02   1.49199980E-06  -1.55819523    
 -0.327430397      0.377874792      -8.18181783E-02   1.49199980E-06  -1.55819523    
 -0.327430397      0.377874792     -0.163636401       1.49199980E-06  -1.55819523    
 -0.420626789      0.270320386     -0.163636401       1.49199980E-06  -1.55819523    
 -0.479746491      0.140866295      -8.18181783E-02   3.19561195E-06   1.56711078    
 -0.420626789      0.270320386      -8.18181783E-02   3.19561195E-06   1.56711078    
 -0.420626789      0.270320386     -0.163636401       3.19561195E-06   1.56711078    
 -0.479746491      0.140866295     -0.163636401       3.19561195E-06   1.56711078    
 -0.500000000       2.84000009E-16  -8.18181783E-02   3.14658024E-07  -1.55805540    
 -0.479746491      0.140866295      -8.18181783E-02   3.14658024E-07  -1.55805540    
 -0.479746491      0.140866295     -0.163636401       3.14658024E-07  -1.55805540    
 -0.500000000       2.84000009E-16 -0.163636401       3.14658024E-07  -1.55805540    
  0.479746491      0.140866295     -0.163636401       4.76426379E-07  -1.56113970    
  0.500000000       0.00000000     -0.163636401       4.76426379E-07  -1.56113970    
  0.500000000       0.00000000     -0.245454505       4.76426379E-07  -1.56113970    
  0.479746491      0.140866295     -0.245454505       4.76426379E-07  -1.56113970    
  0.420626789      0.270320386     -0.163636401       5.23685321E-06  -1.56824553    
  0.479746491      0.140866295     -0.163636401       5.23685321E-06  -1.56824553    
  0.479746491      0.140866295     -0.245454505       5.23685321E-06  -1.56824553    
  0.420626789      0.270320386     -0.245454505       5.23685321E-06  -1.56824553    
  0.327430397      0.377874792     -0.163636401       1.00390309E-06  -1.55005324    
  0.420626789      0.270320386     -0.163636401       1.00390309E-06  -1.55005324    
  0.420626789      0.270320386     -0.245454505       1.00390309E-06  -1.55005324    
  0.327430397      0.377874792     -0.245454505       1.00390309E-06  -1.55005324    
  0.207707494      0.454816014     -0.163636401       5.74489559E-06  -1.56621146    
  0.327430397      0.377874792     -0.163636401       5.74489559E-06  -1.56621146    
  0.327430397      0.377874792     -0.245454505       5.74489559E-06  -1.56621146    
  0.207707494      0.454816014     -0.245454505       5.74489559E-06  -1.56621146    
   7.11574182E-02  0.494910687     -0.163636401       6.83026684E-08   1.12461126    
  0.207707494      0.454816014     -0.163636401       6.83026684E-08   1.12461126    
  0.207707494      0.454816014     -0.245454505       6.83026684E-08   1.12461126    
   7.11574182E-02  0.494910687     -0.245454505       6.83026684E-08   1.12461126    
  -7.11574182E-02  0.494910687     -0.163636401       2.82543681E-07  -1.46413732    
   7.11574182E-02  0.494910687     -0.163636401       2.82543681E-07  -1.46413732    
   7.11574182E-02  0.494910687     -0.245454505       2.82543681E-07  -1.46413732    
  -7.11574182E-02  0.494910687     -0.245454505       2.82543681E-07  -1.46413732    
 -0.207707494      0.454816014     -0.163636401       6.47124864E-07  -1.52713537    
  -7.11574182E-02  0.494910687     -0.163636401       6.47124864E-07  -1.52713537    
  -7.11574182E-02  0.494910687     -0.245454505       6.47124864E-07  -1.52713537    
 -0.207707494      0.454816014     -0.245454505       6.47124864E-07  -1.52713537    
 -0.327430397      0.377874792     -0.163636401       5.07542518E-06   1.56601501    
 -0.207707494      0.454816014     -0.163636401       5.07542518E-06   1.56601501    
 -0.207707494      0.454816014     -0.245454505       5.07542518E-06   1.56601501    
 -0.327430397      0.377874792     -0.245454505       5.07542518E-06   1.56601501    
 -0.420626789      0.270320386     -0.163636401       8.39915799E-08   1.34783769    
 -0.327430397      0.377874792     -0.163636401       8.39915799E-08   1.34783769    
 -0.327430397      0.377874792     -0.245454505       8.39915799E-08   1.34783769    
 -0.420626789      0.270320386     -0.245454505       8.39915799E-08   1.34783769    
 -0.479746491      0.140866295     -0.163636401       3.35606705E-06   1.56732965    
 -0.420626789      0.270320386     -0.163636401       3.35606705E-06   1.56732965    
 -0.420626789      0.270320386     -0.245454505       3.35606705E-06   1.56732965    
 -0.479746491      0.140866295     -0.245454505       3.35606705E-06   1.56732965    
 -0.500000000       2.84000009E-16 -0.163636401       3.47500801E-08   1.45655251    
 -0.479746491      0.140866295     -0.163636401       3.47500801E-08   1.45655251    
 -0.479746491      0.140866295     -0.245454505       3.47500801E-08   1.45655251    
 -0.500000000       2.84000009E-16 -0.245454505       3.47500801E-08   1.45655251    
  0.479746491      0.140866295     -0.245454505       3.15334518E-07  -1.55638504    
  0.500000000       0.00000000     -0.245454505       3.15334518E-07  -1.55638504    
  0.500000000       0.00000000     -0.327272713       3.15334518E-07  -1.55638504    
  0.479746491      0.140866295     -0.327272713       3.15334518E-07  -1.55638504    
  0.420626789      0.270320386     -0.245454505       5.12019915E-06  -1.56821954    
  0.479746491      0.140866295     -0.245454505       5.12019915E-06  -1.56821954    
  0.479746491      0.140866295     -0.327272713       5.12019915E-06  -1.56821954    
  0.420626789      0.270320386     -0.327272713       5.12019915E-06  -1.56821954    
  0.327430397      0.377874792     -0.245454505       3.60301738E-06  -1.56508768    
  0.420626789      0.270320386     -0.245454505       3.60301738E-06  -1.56508768    
  0.420626789      0.270320386     -0.327272713       3.60301738E-06  -1.56508768    
  0.327430397      0.377874792     -0.327272713       3.60301738E-06  -1.56508768    
  0.207707494      0.454816014     -0.245454505       6.13207521E-06  -1.56655312    
  0.327430397      0.377874792     -0.245454505       6.13207521E-06  -1.56655312    
  0.327430397      0.377874792     -0.327272713       6.13207521E-06  -1.56655312    
  0.207707494      0.454816014     -0.327272713       6.13207521E-06  -1.56655312    
   7.11574182E-02  0.494910687     -0.245454505       4.37751993E-07   1.50423443    
  0.207707494      0.454816014     -0.245454505       4.37751993E-07   1.50423443    
  0.207707494      0.454816014     -0.327272713       4.37751993E-07   1.50423443    
   7.11574182E-02  0.494910687     -0.327272713       4.37751993E-07   1.50423443    
  -7.11574182E-02  0.494910687     -0.245454505       2.81028889E-07  -1.46487343    
   7.11574182E-02  0.494910687     -0.245454505       2.81028889E-07  -1.46487343    
   7.11574182E-02  0.494910687     -0.327272713       2.81028889E-07  -1.46487343    
  -7.11574182E-02  0.494910687     -0.327272713       2.81028889E-07  -1.46487343    
 -0.207707494      0.454816014     -0.245454505       1.02237402E-06  -1.54350197    
  -7.11574182E-02  0.494910687     -0.245454505       1.02237402E-06  -1.54350197    
  -7.11574182E-02  0.494910687     -0.327272713       1.02237402E-06  -1.54350197    
 -0.207707494      0.454816014     -0.327272713       1.02237402E-06  -1.54350197    
 -0.327430397      0.377874792     -0.245454505       5.44427303E-06   1.56639338    
 -0.207707494      0.454816014     -0.245454505       5.44427303E-06   1.56639338    
 -0.207707494      0.454816014     -0.327272713       5.44427303E-06   1.56639338    
 -0.327430397      0.377874792     -0.327272713       5.44427303E-06   1.56639338    
 -0.420626789      0.270320386     -0.245454505       2.58182149E-06   1.56369042    
 -0.327430397      0.377874792     -0.245454505       2.58182149E-06   1.56369042    
 -0.327430397      0.377874792     -0.327272713       2.58182149E-06   1.56369042    
 -0.420626789      0.270320386     -0.327272713       2.58182149E-06   1.56369042    
 -0.479746491      0.140866295     -0.245454505       2.95805694E-06   1.56691122    
 -0.420626789      0.270320386     -0.245454505       2.95805694E-06   1.56691122    
 -0.420626789      0.270320386     -0.327272713       2.95805694E-06   1.56691122    
 -0.479746491      0.140866295     -0.327272713       2.95805694E-06   1.56691122    
 -0.500000000       2.84000009E-16 -0.245454505       2.06983160E-07  -1.55188966    
 -0.479746491      0.140866295     -0.245454505       2.06983160E-07  -1.55188966    
 -0.479746491      0.140866295     -0.327272713       2.06983160E-07  -1.55188966    
 -0.500000000       2.84000009E-16 -0.327272713       2.06983160E-07  -1.55188966    
  0.479746491      0.140866295     -0.327272713       7.29188969E-07  -1.56464124    
  0.500000000       0.00000000     -0.327272713       7.29188969E-07  -1.56464124    
  0.500000000       0.00000000     -0.409090906       7.29188969E-07  -1.56464124    
  0.479746491      0.140866295     -0.409090906       7.29188969E-07  -1.56464124    
  0.420626789      0.270320386     -0.327272713       5.96336849E-06  -1.56861126    
  0.479746491      0.140866295     -0.327272713       5.96336849E-06  -1.56861126    
  0.479746491      0.140866295     -0.409090906       5.96336849E-06  -1.56861126    
  0.420626789      0.270320386     -0.409090906       5.96336849E-06  -1.56861126    
  0.327430397      0.377874792     -0.327272713       1.99257624E-06  -1.56060159    
  0.420626789      0.270320386     -0.327272713       1.99257624E-06  -1.56060159    
  0.420626789      0.270320386     -0.409090906       1.99257624E-06  -1.56060159    
  0.327430397      0.377874792     -0.409090906       1.99257624E-06  -1.56060159    
  0.207707494      0.454816014     -0.327272713       6.33627496E-06  -1.56674075    
  0.327430397      0.377874792     -0.327272713       6.33627496E-06  -1.56674075    
  0.327430397      0.377874792     -0.409090906       6.33627496E-06  -1.56674075    
  0.207707494      0.454816014     -0.409090906       6.33627496E-06  -1.56674075    
   7.11574182E-02  0.494910687     -0.327272713       3.51951513E-07  -1.48900747    
  0.207707494      0.454816014     -0.327272713       3.51951513E-07  -1.48900747    
  0.207707494      0.454816014     -0.409090906       3.51951513E-07  -1.48900747    
   7.11574182E-02  0.494910687     -0.409090906       3.51951513E-07  -1.48900747    
  -7.11574182E-02  0.494910687     -0.327272713       2.79321341E-07  -1.46555245    
   7.11574182E-02  0.494910687     -0.327272713       2.79321341E-07  -1.46555245    
   7.11574182E-02  0.494910687     -0.409090906       2.79321341E-07  -1.46555245    
  -7.11574182E-02  0.494910687     -0.409090906       2.79321341E-07  -1.46555245    
 -0.207707494      0.454816014     -0.327272713       2.35024672E-07  -1.45328486    
  -7.11574182E-02  0.494910687     -0.327272713       2.35024672E-07  -1.45328486    
  -7.11574182E-02  0.494910687     -0.409090906       2.35024672E-07  -1.45328486    
 -0.207707494      0.454816014     -0.409090906       2.35024672E-07  -1.45328486    
 -0.327430397      0.377874792     -0.327272713       5.63743015E-06   1.56659722    
 -0.207707494      0.454816014     -0.327272713       5.63743015E-06   1.56659722    
 -0.207707494      0.454816014     -0.409090906       5.63743015E-06   1.56659722    
 -0.327430397      0.377874792     -0.409090906       5.63743015E-06   1.56659722    
 -0.420626789      0.270320386     -0.327272713       9.23122798E-07   1.55116892    
 -0.327430397      0.377874792     -0.327272713       9.23122798E-07   1.55116892    
 -0.327430397      0.377874792     -0.409090906       9.23122798E-07   1.55116892    
 -0.420626789      0.270320386     -0.409090906       9.23122798E-07   1.55116892    
 -0.479746491      0.140866295     -0.327272713       3.71174383E-06   1.56773865    
 -0.420626789      0.270320386     -0.327272713       3.71174383E-06   1.56773865    
 -0.420626789      0.270320386     -0.409090906       3.71174383E-06   1.56773865    
 -0.479746491      0.140866295     -0.409090906       3.71174383E-06   1.56773865    
 -0.500000000       2.84000009E-16 -0.327272713       1.70602561E-07   1.54814637    
 -0.479746491      0.140866295     -0.327272713       1.70602561E-07   1.54814637    
 -0.479746491      0.140866295     -0.409090906       1.70602561E-07   1.54814637    
 -0.500000000       2.84000009E-16 -0.409090906       1.70602561E-07   1.54814637    
  0.479746491      0.140866295     -0.409090906       7.29986596E-07  -1.56472898    
  0.500000000       0.00000000     -0.409090906       7.29986596E-07  -1.56472898    
  0.500000000       0.00000000     -0.490909100       7.29986596E-07  -1.56472898    
  0.479746491      0.140866295     -0.490909100       7.29986596E-07  -1.56472898    
  0.420626789      0.270320386     -0.409090906       6.07289712E-06  -1.56867850    
  0.479746491      0.140866295     -0.409090906       6.07289712E-06  -1.56867850    
  0.479746491      0.140866295     -0.490909100       6.07289712E-06  -1.56867850    
  0.420626789      0.270320386     -0.490909100       6.07289712E-06  -1.56867850    
  0.327430397      0.377874792     -0.409090906       2.30109686E-06  -1.56208265    
  0.420626789      0.270320386     -0.409090906       2.30109686E-06  -1.56208265    
  0.420626789      0.270320386     -0.490909100       2.30109686E-06  -1.56208265    
  0.327430397      0.377874792     -0.490909100       2.30109686E-06  -1.56208265    
  0.207707494      0.454816014     -0.409090906       6.55204531E-06  -1.56692529    
  0.327430397      0.377874792     -0.409090906       6.55204531E-06  -1.56692529    
  0.327430397      0.377874792     -0.490909100       6.55204531E-06  -1.56692529    
  0.207707494      0.454816014     -0.490909100       6.55204531E-06  -1.56692529    
   7.11574182E-02  0.494910687     -0.409090906       4.07699019E-07  -1.50112677    
  0.207707494      0.454816014     -0.409090906       4.07699019E-07  -1.50112677    
  0.207707494      0.454816014     -0.490909100       4.07699019E-07  -1.50112677    
   7.11574182E-02  0.494910687     -0.490909100       4.07699019E-07  -1.50112677    
  -7.11574182E-02  0.494910687     -0.409090906       2.76934912E-07  -1.46602464    
   7.11574182E-02  0.494910687     -0.409090906       2.76934912E-07  -1.46602464    
   7.11574182E-02  0.494910687     -0.490909100       2.76934912E-07  -1.46602464    
  -7.11574182E-02  0.494910687     -0.490909100       2.76934912E-07  -1.46602464    
 -0.207707494      0.454816014     -0.409090906       1.76026631E-07  -1.41567457    
  -7.11574182E-02  0.494910687     -0.409090906       1.76026631E-07  -1.41567457    
  -7.11574182E-02  0.494910687     -0.490909100       1.76026631E-07  -1.41567457    
 -0.207707494      0.454816014     -0.490909100       1.76026631E-07  -1.41567457    
 -0.327430397      0.377874792     -0.409090906       5.85263069E-06   1.56680381    
 -0.207707494      0.454816014     -0.409090906       5.85263069E-06   1.56680381    
 -0.207707494      0.454816014     -0.490909100       5.85263069E-06   1.56680381    
 -0.327430397      0.377874792     -0.490909100       5.85263069E-06   1.56680381    
 -0.420626789      0.270320386     -0.409090906       1.22293989E-06   1.55617309    
 -0.327430397      0.377874792     -0.409090906       1.22293989E-06   1.55617309    
 -0.327430397      0.377874792     -0.490909100       1.22293989E-06   1.55617309    
 -0.420626789      0.270320386     -0.490909100       1.22293989E-06   1.55617309    
 -0.479746491      0.140866295     -0.409090906       3.80752363E-06   1.56785440    
 -0.420626789      0.270320386     -0.409090906       3.80752363E-06   1.56785440    
 -0.420626789      0.270320386     -0.490909100       3.80752363E-06   1.56785440    
 -0.479746491      0.140866295     -0.490909100       3.80752363E-06   1.56785440    
 -0.500000000       2.84000009E-16 -0.409090906       1.64792908E-07   1.54764926    
 -0.479746491      0.140866295     -0.409090906       1.64792908E-07   1.54764926    
 -0.479746491      0.140866295     -0.490909100       1.64792908E-07   1.54764926    
 -0.500000000       2.84000009E-16 -0.490909100       1.64792908E-07   1.54764926    
  0.479746491      0.140866295     -0.490909100       2.54352159E-07  -1.55362535    
  0.500000000       0.00000000     -0.490909100       2.54352159E-07  -1.55362535    
  0.500000000       0.00000000     -0.572727323       2.54352159E-07  -1.55362535    
  0.479746491      0.140866295     -0.572727323       2.54352159E-07  -1.55362535    
  0.420626789      0.270320386     -0.490909100       5.38333234E-06  -1.56844103    
  0.479746491      0.140866295     -0.490909100       5.38333234E-06  -1.56844103    
  0.479746491      0.140866295     -0.572727323       5.38333234E-06  -1.56844103    
  0.420626789      0.270320386     -0.572727323       5.38333234E-06  -1.56844103    
  0.327430397      0.377874792     -0.490909100       4.87099669E-06  -1.56673825    
  0.420626789      0.270320386     -0.490909100       4.87099669E-06  -1.56673825    
  0.420626789      0.270320386     -0.572727323       4.87099669E-06  -1.56673825    
  0.327430397      0.377874792     -0.572727323       4.87099669E-06  -1.56673825    
  0.207707494      0.454816014     -0.490909100       6.85750138E-06  -1.56715012    
  0.327430397      0.377874792     -0.490909100       6.85750138E-06  -1.56715012    
  0.327430397      0.377874792     -0.572727323       6.85750138E-06  -1.56715012    
  0.207707494      0.454816014     -0.572727323       6.85750138E-06  -1.56715012    
   7.11574182E-02  0.494910687     -0.490909100       3.39349782E-07   1.48824835    
  0.207707494      0.454816014     -0.490909100       3.39349782E-07   1.48824835    
  0.207707494      0.454816014     -0.572727323       3.39349782E-07   1.48824835    
   7.11574182E-02  0.494910687     -0.572727323       3.39349782E-07   1.48824835    
  -7.11574182E-02  0.494910687     -0.490909100       2.73614546E-07  -1.46624923    
   7.11574182E-02  0.494910687     -0.490909100       2.73614546E-07  -1.46624923    
   7.11574182E-02  0.494910687     -0.572727323       2.73614546E-07  -1.46624923    
  -7.11574182E-02  0.494910687     -0.572727323       2.73614546E-07  -1.46624923    
 -0.207707494      0.454816014     -0.490909100       9.12444477E-07  -1.54140544    
  -7.11574182E-02  0.494910687     -0.490909100       9.12444477E-07  -1.54140544    
  -7.11574182E-02  0.494910687     -0.572727323       9.12444477E-07  -1.54140544    
 -0.207707494      0.454816014     -0.572727323       9.12444477E-07  -1.54140544    
 -0.327430397      0.377874792     -0.490909100       6.16836769E-06   1.56706166    
 -0.207707494      0.454816014     -0.490909100       6.16836769E-06   1.56706166    
 -0.207707494      0.454816014     -0.572727323       6.16836769E-06   1.56706166    
 -0.327430397      0.377874792     -0.572727323       6.16836769E-06   1.56706166    
 -0.420626789      0.270320386     -0.490909100       3.82063581E-06   1.56618178    
 -0.327430397      0.377874792     -0.490909100       3.82063581E-06   1.56618178    
 -0.327430397      0.377874792     -0.572727323       3.82063581E-06   1.56618178    
 -0.420626789      0.270320386     -0.572727323       3.82063581E-06   1.56618178    
 -0.479746491      0.140866295     -0.490909100       3.17173135E-06   1.56731415    
 -0.420626789      0.270320386     -0.490909100       3.17173135E-06   1.56731415    
 -0.420626789      0.270320386     -0.572727323       3.17173135E-06   1.56731415    
 -0.479746491      0.140866295     -0.572727323       3.17173135E-06   1.56731415    
 -0.500000000       2.84000009E-16 -0.490909100       2.91094693E-07  -1.55787587    
 -0.479746491      0.140866295     -0.490909100       2.91094693E-07  -1.55787587    
 -0.479746491      0.140866295     -0.572727323       2.91094693E-07  -1.55787587    
 -0.500000000       2.84000009E-16 -0.572727323       2.91094693E-07  -1.55787587    
  0.479746491      0.140866295     -0.572727323       3.68826001E-08  -1.45404828    
  0.500000000       0.00000000     -0.572727323       3.68826001E-08  -1.45404828    
  0.500000000       0.00000000     -0.654545426       3.68826001E-08  -1.45404828    
  0.479746491      0.140866295     -0.654545426       3.68826001E-08  -1.45404828    
  0.420626789      0.270320386     -0.572727323       5.15317379E-06  -1.56837595    
  0.479746491      0.140866295     -0.572727323       5.15317379E-06  -1.56837595    
  0.479746491      0.140866295     -0.654545426       5.15317379E-06  -1.56837595    
  0.420626789      0.270320386     -0.654545426       5.15317379E-06  -1.56837595    
  0.327430397      0.377874792     -0.572727323       5.03631099E-06  -1.56693542    
  0.420626789      0.270320386     -0.572727323       5.03631099E-06  -1.56693542    
  0.420626789      0.270320386     -0.654545426       5.03631099E-06  -1.56693542    
  0.327430397      0.377874792     -0.654545426       5.03631099E-06  -1.56693542    
  0.207707494      0.454816014     -0.572727323       7.26177814E-06  -1.56740904    
  0.327430397      0.377874792     -0.572727323       7.26177814E-06  -1.56740904    
  0.327430397      0.377874792     -0.654545426       7.26177814E-06  -1.56740904    
  0.207707494      0.454816014     -0.654545426       7.26177814E-06  -1.56740904    
   7.11574182E-02  0.494910687     -0.572727323       2.89051115E-07   1.47542536    
  0.207707494      0.454816014     -0.572727323       2.89051115E-07   1.47542536    
  0.207707494      0.454816014     -0.654545426       2.89051115E-07   1.47542536    
   7.11574182E-02  0.494910687     -0.654545426       2.89051115E-07   1.47542536    
  -7.11574182E-02  0.494910687     -0.572727323       2.69469382E-07  -1.46636415    
   7.11574182E-02  0.494910687     -0.572727323       2.69469382E-07  -1.46636415    
   7.11574182E-02  0.494910687     -0.654545426       2.69469382E-07  -1.46636415    
  -7.11574182E-02  0.494910687     -0.654545426       2.69469382E-07  -1.46636415    
 -0.207707494      0.454816014     -0.572727323       8.51776065E-07  -1.53982067    
  -7.11574182E-02  0.494910687     -0.572727323       8.51776065E-07  -1.53982067    
  -7.11574182E-02  0.494910687     -0.654545426       8.51776065E-07  -1.53982067    
 -0.207707494      0.454816014     -0.654545426       8.51776065E-07  -1.53982067    
 -0.327430397      0.377874792     -0.572727323       6.59217812E-06   1.56735814    
 -0.207707494      0.454816014     -0.572727323       6.59217812E-06   1.56735814    
 -0.207707494      0.454816014     -0.654545426       6.59217812E-06   1.56735814    
 -0.327430397      0.377874792     -0.654545426       6.59217812E-06   1.56735814    
 -0.420626789      0.270320386     -0.572727323       4.05427545E-06   1.56651795    
 -0.327430397      0.377874792     -0.572727323       4.05427545E-06   1.56651795    
 -0.327430397      0.377874792     -0.654545426       4.05427545E-06   1.56651795    
 -0.420626789      0.270320386     -0.654545426       4.05427545E-06   1.56651795    
 -0.479746491      0.140866295     -0.572727323       3.15129410E-06   1.56734788    
 -0.420626789      0.270320386     -0.572727323       3.15129410E-06   1.56734788    
 -0.420626789      0.270320386     -0.654545426       3.15129410E-06   1.56734788    