 VARIABLES="X" "Y" "Z" "abs(p) (Pa)" "angle(p) (rad)"
ZONE N=    528,E =     462, F=FEPOINT, ET=QUADRILATERAL
  0.479746491      0.140866295       0.00000000       10780.1357      -2.25265431    
  0.500000000       0.00000000       0.00000000       10780.1357      -2.25265431    
  0.500000000       0.00000000      -8.18181783E-02   10780.1357      -2.25265431    
  0.479746491      0.140866295      -8.18181783E-02   10780.1357      -2.25265431    
  0.420626789      0.270320386       0.00000000       8673.63965      -2.29240656    
  0.479746491      0.140866295       0.00000000       8673.63965      -2.29240656    
  0.479746491      0.140866295      -8.18181783E-02   8673.63965      -2.29240656    
  0.420626789      0.270320386      -8.18181783E-02   8673.63965      -2.29240656    
  0.327430397      0.377874792       0.00000000       5188.72705      -2.35090065    
  0.420626789      0.270320386       0.00000000       5188.72705      -2.35090065    
  0.420626789      0.270320386      -8.18181783E-02   5188.72705      -2.35090065    
  0.327430397      0.377874792      -8.18181783E-02   5188.72705      -2.35090065    
  0.207707494      0.454816014       0.00000000       1566.29736      -2.18571615    
  0.327430397      0.377874792       0.00000000       1566.29736      -2.18571615    
  0.327430397      0.377874792      -8.18181783E-02   1566.29736      -2.18571615    
  0.207707494      0.454816014      -8.18181783E-02   1566.29736      -2.18571615    
   7.11574182E-02  0.494910687       0.00000000       1738.93286     -0.246242225    
  0.207707494      0.454816014       0.00000000       1738.93286     -0.246242225    
  0.207707494      0.454816014      -8.18181783E-02   1738.93286     -0.246242225    
   7.11574182E-02  0.494910687      -8.18181783E-02   1738.93286     -0.246242225    
  -7.11574182E-02  0.494910687       0.00000000       3393.27148     -0.408194810    
   7.11574182E-02  0.494910687       0.00000000       3393.27148     -0.408194810    
   7.11574182E-02  0.494910687      -8.18181783E-02   3393.27148     -0.408194810    
  -7.11574182E-02  0.494910687      -8.18181783E-02   3393.27148     -0.408194810    
 -0.207707494      0.454816014       0.00000000       4347.80811     -0.859523356    
  -7.11574182E-02  0.494910687       0.00000000       4347.80811     -0.859523356    
  -7.11574182E-02  0.494910687      -8.18181783E-02   4347.80811     -0.859523356    
 -0.207707494      0.454816014      -8.18181783E-02   4347.80811     -0.859523356    
 -0.327430397      0.377874792       0.00000000       5312.88818      -1.34854257    
 -0.207707494      0.454816014       0.00000000       5312.88818      -1.34854257    
 -0.207707494      0.454816014      -8.18181783E-02   5312.88818      -1.34854257    
 -0.327430397      0.377874792      -8.18181783E-02   5312.88818      -1.34854257    
 -0.420626789      0.270320386       0.00000000       6441.46289      -1.72626686    
 -0.327430397      0.377874792       0.00000000       6441.46289      -1.72626686    
 -0.327430397      0.377874792      -8.18181783E-02   6441.46289      -1.72626686    
 -0.420626789      0.270320386      -8.18181783E-02   6441.46289      -1.72626686    
 -0.479746491      0.140866295       0.00000000       7392.38477      -1.96102202    
 -0.420626789      0.270320386       0.00000000       7392.38477      -1.96102202    
 -0.420626789      0.270320386      -8.18181783E-02   7392.38477      -1.96102202    
 -0.479746491      0.140866295      -8.18181783E-02   7392.38477      -1.96102202    
 -0.500000000       2.84000009E-16   0.00000000       7907.17236      -2.07161021    
 -0.479746491      0.140866295       0.00000000       7907.17236      -2.07161021    
 -0.479746491      0.140866295      -8.18181783E-02   7907.17236      -2.07161021    
 -0.500000000       2.84000009E-16  -8.18181783E-02   7907.17236      -2.07161021    
  0.479746491      0.140866295      -8.18181783E-02   8290.58887      -2.25519967    
  0.500000000       0.00000000      -8.18181783E-02   8290.58887      -2.25519967    
  0.500000000       0.00000000     -0.163636401       8290.58887      -2.25519967    
  0.479746491      0.140866295     -0.163636401       8290.58887      -2.25519967    
  0.420626789      0.270320386      -8.18181783E-02   6665.80469      -2.29595685    
  0.479746491      0.140866295      -8.18181783E-02   6665.80469      -2.29595685    
  0.479746491      0.140866295     -0.163636401       6665.80469      -2.29595685    
  0.420626789      0.270320386     -0.163636401       6665.80469      -2.29595685    
  0.327430397      0.377874792      -8.18181783E-02   3977.53906      -2.35755873    
  0.420626789      0.270320386      -8.18181783E-02   3977.53906      -2.35755873    
  0.420626789      0.270320386     -0.163636401       3977.53906      -2.35755873    
  0.327430397      0.377874792     -0.163636401       3977.53906      -2.35755873    
  0.207707494      0.454816014      -8.18181783E-02   1177.84155      -2.20321965    
  0.327430397      0.377874792      -8.18181783E-02   1177.84155      -2.20321965    
  0.327430397      0.377874792     -0.163636401       1177.84155      -2.20321965    
  0.207707494      0.454816014     -0.163636401       1177.84155      -2.20321965    
   7.11574182E-02  0.494910687      -8.18181783E-02   1336.92871     -0.221050322    
  0.207707494      0.454816014      -8.18181783E-02   1336.92871     -0.221050322    
  0.207707494      0.454816014     -0.163636401       1336.92871     -0.221050322    
   7.11574182E-02  0.494910687     -0.163636401       1336.92871     -0.221050322    
  -7.11574182E-02  0.494910687      -8.18181783E-02   2609.93652     -0.397617042    
   7.11574182E-02  0.494910687      -8.18181783E-02   2609.93652     -0.397617042    
   7.11574182E-02  0.494910687     -0.163636401       2609.93652     -0.397617042    
  -7.11574182E-02  0.494910687     -0.163636401       2609.93652     -0.397617042    
 -0.207707494      0.454816014      -8.18181783E-02   3335.69434     -0.854677916    
  -7.11574182E-02  0.494910687      -8.18181783E-02   3335.69434     -0.854677916    
  -7.11574182E-02  0.494910687     -0.163636401       3335.69434     -0.854677916    
 -0.207707494      0.454816014     -0.163636401       3335.69434     -0.854677916    
 -0.327430397      0.377874792      -8.18181783E-02   4072.76562      -1.34843385    
 -0.207707494      0.454816014      -8.18181783E-02   4072.76562      -1.34843385    
 -0.207707494      0.454816014     -0.163636401       4072.76562      -1.34843385    
 -0.327430397      0.377874792     -0.163636401       4072.76562      -1.34843385    
 -0.420626789      0.270320386      -8.18181783E-02   4940.52783      -1.72913933    
 -0.327430397      0.377874792      -8.18181783E-02   4940.52783      -1.72913933    
 -0.327430397      0.377874792     -0.163636401       4940.52783      -1.72913933    
 -0.420626789      0.270320386     -0.163636401       4940.52783      -1.72913933    
 -0.479746491      0.140866295      -8.18181783E-02   5672.86816      -1.96535850    
 -0.420626789      0.270320386      -8.18181783E-02   5672.86816      -1.96535850    
 -0.420626789      0.270320386     -0.163636401       5672.86816      -1.96535850    
 -0.479746491      0.140866295     -0.163636401       5672.86816      -1.96535850    
 -0.500000000       2.84000009E-16  -8.18181783E-02   6069.29492      -2.07654738    
 -0.479746491      0.140866295      -8.18181783E-02   6069.29492      -2.07654738    
 -0.479746491      0.140866295     -0.163636401       6069.29492      -2.07654738    
 -0.500000000       2.84000009E-16 -0.163636401       6069.29492      -2.07654738    
  0.479746491      0.140866295     -0.163636401       6375.47266      -2.25579023    
  0.500000000       0.00000000     -0.163636401       6375.47266      -2.25579023    
  0.500000000       0.00000000     -0.245454505       6375.47266      -2.25579023    
  0.479746491      0.140866295     -0.245454505       6375.47266      -2.25579023    
  0.420626789      0.270320386     -0.163636401       5124.94434      -2.29684401    
  0.479746491      0.140866295     -0.163636401       5124.94434      -2.29684401    
  0.479746491      0.140866295     -0.245454505       5124.94434      -2.29684401    
  0.420626789      0.270320386     -0.245454505       5124.94434      -2.29684401    
  0.327430397      0.377874792     -0.163636401       3055.93164      -2.35939264    
  0.420626789      0.270320386     -0.163636401       3055.93164      -2.35939264    
  0.420626789      0.270320386     -0.245454505       3055.93164      -2.35939264    
  0.327430397      0.377874792     -0.245454505       3055.93164      -2.35939264    
  0.207707494      0.454816014     -0.163636401       899.993225      -2.20882249    
  0.327430397      0.377874792     -0.163636401       899.993225      -2.20882249    
  0.327430397      0.377874792     -0.245454505       899.993225      -2.20882249    
  0.207707494      0.454816014     -0.245454505       899.993225      -2.20882249    
   7.11574182E-02  0.494910687     -0.163636401       1027.07312     -0.213274732    
  0.207707494      0.454816014     -0.163636401       1027.07312     -0.213274732    
  0.207707494      0.454816014     -0.245454505       1027.07312     -0.213274732    
   7.11574182E-02  0.494910687     -0.245454505       1027.07312     -0.213274732    
  -7.11574182E-02  0.494910687     -0.163636401       2005.38770     -0.394088566    
   7.11574182E-02  0.494910687     -0.163636401       2005.38770     -0.394088566    
   7.11574182E-02  0.494910687     -0.245454505       2005.38770     -0.394088566    
  -7.11574182E-02  0.494910687     -0.245454505       2005.38770     -0.394088566    
 -0.207707494      0.454816014     -0.163636401       2560.70703     -0.853010595    
  -7.11574182E-02  0.494910687     -0.163636401       2560.70703     -0.853010595    
  -7.11574182E-02  0.494910687     -0.245454505       2560.70703     -0.853010595    
 -0.207707494      0.454816014     -0.245454505       2560.70703     -0.853010595    
 -0.327430397      0.377874792     -0.163636401       3125.67456      -1.34848166    
 -0.207707494      0.454816014     -0.163636401       3125.67456      -1.34848166    
 -0.207707494      0.454816014     -0.245454505       3125.67456      -1.34848166    
 -0.327430397      0.377874792     -0.245454505       3125.67456      -1.34848166    
 -0.420626789      0.270320386     -0.163636401       3792.66235      -1.73031092    
 -0.327430397      0.377874792     -0.163636401       3792.66235      -1.73031092    
 -0.327430397      0.377874792     -0.245454505       3792.66235      -1.73031092    
 -0.420626789      0.270320386     -0.245454505       3792.66235      -1.73031092    
 -0.479746491      0.140866295     -0.163636401       4356.01416      -1.96709538    
 -0.420626789      0.270320386     -0.163636401       4356.01416      -1.96709538    
 -0.420626789      0.270320386     -0.245454505       4356.01416      -1.96709538    
 -0.479746491      0.140866295     -0.245454505       4356.01416      -1.96709538    
 -0.500000000       2.84000009E-16 -0.163636401       4660.99658      -2.07851958    
 -0.479746491      0.140866295     -0.163636401       4660.99658      -2.07851958    
 -0.479746491      0.140866295     -0.245454505       4660.99658      -2.07851958    
 -0.500000000       2.84000009E-16 -0.245454505       4660.99658      -2.07851958    
  0.479746491      0.140866295     -0.245454505       4910.25000      -2.25552058    
  0.500000000       0.00000000     -0.245454505       4910.25000      -2.25552058    
  0.500000000       0.00000000     -0.327272713       4910.25000      -2.25552058    
  0.479746491      0.140866295     -0.327272713       4910.25000      -2.25552058    
  0.420626789      0.270320386     -0.245454505       3946.92017      -2.29667783    
  0.479746491      0.140866295     -0.245454505       3946.92017      -2.29667783    
  0.479746491      0.140866295     -0.327272713       3946.92017      -2.29667783    
  0.420626789      0.270320386     -0.327272713       3946.92017      -2.29667783    
  0.327430397      0.377874792     -0.245454505       2353.14307      -2.35957384    
  0.420626789      0.270320386     -0.245454505       2353.14307      -2.35957384    
  0.420626789      0.270320386     -0.327272713       2353.14307      -2.35957384    
  0.327430397      0.377874792     -0.327272713       2353.14307      -2.35957384    
  0.207707494      0.454816014     -0.245454505       692.156311      -2.21082354    
  0.327430397      0.377874792     -0.245454505       692.156311      -2.21082354    
  0.327430397      0.377874792     -0.327272713       692.156311      -2.21082354    
  0.207707494      0.454816014     -0.327272713       692.156311      -2.21082354    
   7.11574182E-02  0.494910687     -0.245454505       789.614136     -0.210421830    
  0.207707494      0.454816014     -0.245454505       789.614136     -0.210421830    
  0.207707494      0.454816014     -0.327272713       789.614136     -0.210421830    
   7.11574182E-02  0.494910687     -0.327272713       789.614136     -0.210421830    
  -7.11574182E-02  0.494910687     -0.245454505       1542.15356     -0.392420471    
   7.11574182E-02  0.494910687     -0.245454505       1542.15356     -0.392420471    
   7.11574182E-02  0.494910687     -0.327272713       1542.15356     -0.392420471    
  -7.11574182E-02  0.494910687     -0.327272713       1542.15356     -0.392420471    
 -0.207707494      0.454816014     -0.245454505       1968.16187     -0.852150500    
  -7.11574182E-02  0.494910687     -0.245454505       1968.16187     -0.852150500    
  -7.11574182E-02  0.494910687     -0.327272713       1968.16187     -0.852150500    
 -0.207707494      0.454816014     -0.327272713       1968.16187     -0.852150500    
 -0.327430397      0.377874792     -0.245454505       2401.83301      -1.34858167    
 -0.207707494      0.454816014     -0.245454505       2401.83301      -1.34858167    
 -0.207707494      0.454816014     -0.327272713       2401.83301      -1.34858167    
 -0.327430397      0.377874792     -0.327272713       2401.83301      -1.34858167    
 -0.420626789      0.270320386     -0.245454505       2914.65942      -1.73111784    
 -0.327430397      0.377874792     -0.245454505       2914.65942      -1.73111784    
 -0.327430397      0.377874792     -0.327272713       2914.65942      -1.73111784    
 -0.420626789      0.270320386     -0.327272713       2914.65942      -1.73111784    
 -0.479746491      0.140866295     -0.245454505       3348.01343      -1.96829343    
 -0.420626789      0.270320386     -0.245454505       3348.01343      -1.96829343    
 -0.420626789      0.270320386     -0.327272713       3348.01343      -1.96829343    
 -0.479746491      0.140866295     -0.327272713       3348.01343      -1.96829343    
 -0.500000000       2.84000009E-16 -0.245454505       3582.63062      -2.07989478    
 -0.479746491      0.140866295     -0.245454505       3582.63062      -2.07989478    
 -0.479746491      0.140866295     -0.327272713       3582.63062      -2.07989478    
 -0.500000000       2.84000009E-16 -0.327272713       3582.63062      -2.07989478    
  0.479746491      0.140866295     -0.327272713       3791.74512      -2.25421023    
  0.500000000       0.00000000     -0.327272713       3791.74512      -2.25421023    
  0.500000000       0.00000000     -0.409090906       3791.74512      -2.25421023    
  0.479746491      0.140866295     -0.409090906       3791.74512      -2.25421023    
  0.420626789      0.270320386     -0.327272713       3048.24243      -2.29530907    
  0.479746491      0.140866295     -0.327272713       3048.24243      -2.29530907    
  0.479746491      0.140866295     -0.409090906       3048.24243      -2.29530907    
  0.420626789      0.270320386     -0.409090906       3048.24243      -2.29530907    
  0.327430397      0.377874792     -0.327272713       1818.23303      -2.35804486    
  0.420626789      0.270320386     -0.327272713       1818.23303      -2.35804486    
  0.420626789      0.270320386     -0.409090906       1818.23303      -2.35804486    
  0.327430397      0.377874792     -0.409090906       1818.23303      -2.35804486    
  0.207707494      0.454816014     -0.327272713       536.547424      -2.20966911    
  0.327430397      0.377874792     -0.327272713       536.547424      -2.20966911    
  0.327430397      0.377874792     -0.409090906       536.547424      -2.20966911    
  0.207707494      0.454816014     -0.409090906       536.547424      -2.20966911    
   7.11574182E-02  0.494910687     -0.327272713       607.647705     -0.212354600    
  0.207707494      0.454816014     -0.327272713       607.647705     -0.212354600    
  0.207707494      0.454816014     -0.409090906       607.647705     -0.212354600    
   7.11574182E-02  0.494910687     -0.409090906       607.647705     -0.212354600    
  -7.11574182E-02  0.494910687     -0.327272713       1187.56763     -0.392524600    
   7.11574182E-02  0.494910687     -0.327272713       1187.56763     -0.392524600    
   7.11574182E-02  0.494910687     -0.409090906       1187.56763     -0.392524600    
  -7.11574182E-02  0.494910687     -0.409090906       1187.56763     -0.392524600    
 -0.207707494      0.454816014     -0.327272713       1515.39990     -0.852154315    
  -7.11574182E-02  0.494910687     -0.327272713       1515.39990     -0.852154315    
  -7.11574182E-02  0.494910687     -0.409090906       1515.39990     -0.852154315    
 -0.207707494      0.454816014     -0.409090906       1515.39990     -0.852154315    
 -0.327430397      0.377874792     -0.327272713       1848.90540      -1.34893417    
 -0.207707494      0.454816014     -0.327272713       1848.90540      -1.34893417    
 -0.207707494      0.454816014     -0.409090906       1848.90540      -1.34893417    
 -0.327430397      0.377874792     -0.409090906       1848.90540      -1.34893417    
 -0.420626789      0.270320386     -0.327272713       2243.47998      -1.73185420    
 -0.327430397      0.377874792     -0.327272713       2243.47998      -1.73185420    
 -0.327430397      0.377874792     -0.409090906       2243.47998      -1.73185420    
 -0.420626789      0.270320386     -0.409090906       2243.47998      -1.73185420    
 -0.479746491      0.140866295     -0.327272713       2576.92041      -1.96929419    
 -0.420626789      0.270320386     -0.327272713       2576.92041      -1.96929419    
 -0.420626789      0.270320386     -0.409090906       2576.92041      -1.96929419    
 -0.479746491      0.140866295     -0.409090906       2576.92041      -1.96929419    
 -0.500000000       2.84000009E-16 -0.327272713       2757.40967      -2.08103156    
 -0.479746491      0.140866295     -0.327272713       2757.40967      -2.08103156    
 -0.479746491      0.140866295     -0.409090906       2757.40967      -2.08103156    
 -0.500000000       2.84000009E-16 -0.409090906       2757.40967      -2.08103156    
  0.479746491      0.140866295     -0.409090906       2940.83398      -2.25127554    
  0.500000000       0.00000000     -0.409090906       2940.83398      -2.25127554    
  0.500000000       0.00000000     -0.490909100       2940.83398      -2.25127554    
  0.479746491      0.140866295     -0.490909100       2940.83398      -2.25127554    
  0.420626789      0.270320386     -0.409090906       2365.14185      -2.29210281    
  0.479746491      0.140866295     -0.409090906       2365.14185      -2.29210281    
  0.479746491      0.140866295     -0.490909100       2365.14185      -2.29210281    
  0.420626789      0.270320386     -0.490909100       2365.14185      -2.29210281    
  0.327430397      0.377874792     -0.409090906       1412.82092      -2.35399413    
  0.420626789      0.270320386     -0.409090906       1412.82092      -2.35399413    
  0.420626789      0.270320386     -0.490909100       1412.82092      -2.35399413    
  0.327430397      0.377874792     -0.490909100       1412.82092      -2.35399413    
  0.207707494      0.454816014     -0.409090906       421.046631      -2.20419788    
  0.327430397      0.377874792     -0.409090906       421.046631      -2.20419788    
  0.327430397      0.377874792     -0.490909100       421.046631      -2.20419788    
  0.207707494      0.454816014     -0.490909100       421.046631      -2.20419788    
   7.11574182E-02  0.494910687     -0.409090906       468.371094     -0.221469730    
  0.207707494      0.454816014     -0.409090906       468.371094     -0.221469730    
  0.207707494      0.454816014     -0.490909100       468.371094     -0.221469730    
   7.11574182E-02  0.494910687     -0.490909100       468.371094     -0.221469730    
  -7.11574182E-02  0.494910687     -0.409090906       916.665833     -0.395331651    
   7.11574182E-02  0.494910687     -0.409090906       916.665833     -0.395331651    
   7.11574182E-02  0.494910687     -0.490909100       916.665833     -0.395331651    
  -7.11574182E-02  0.494910687     -0.490909100       916.665833     -0.395331651    
 -0.207707494      0.454816014     -0.409090906       1170.25146     -0.853545427    
  -7.11574182E-02  0.494910687     -0.409090906       1170.25146     -0.853545427    
  -7.11574182E-02  0.494910687     -0.490909100       1170.25146     -0.853545427    
 -0.207707494      0.454816014     -0.490909100       1170.25146     -0.853545427    
 -0.327430397      0.377874792     -0.409090906       1427.50598      -1.34976387    
 -0.207707494      0.454816014     -0.409090906       1427.50598      -1.34976387    
 -0.207707494      0.454816014     -0.490909100       1427.50598      -1.34976387    
 -0.327430397      0.377874792     -0.490909100       1427.50598      -1.34976387    
 -0.420626789      0.270320386     -0.409090906       1731.41101      -1.73258185    
 -0.327430397      0.377874792     -0.409090906       1731.41101      -1.73258185    
 -0.327430397      0.377874792     -0.490909100       1731.41101      -1.73258185    
 -0.420626789      0.270320386     -0.490909100       1731.41101      -1.73258185    
 -0.479746491      0.140866295     -0.409090906       1988.00793      -1.97010362    
 -0.420626789      0.270320386     -0.409090906       1988.00793      -1.97010362    
 -0.420626789      0.270320386     -0.490909100       1988.00793      -1.97010362    
 -0.479746491      0.140866295     -0.490909100       1988.00793      -1.97010362    
 -0.500000000       2.84000009E-16 -0.409090906       2126.80054      -2.08192182    
 -0.479746491      0.140866295     -0.409090906       2126.80054      -2.08192182    
 -0.479746491      0.140866295     -0.490909100       2126.80054      -2.08192182    
 -0.500000000       2.84000009E-16 -0.490909100       2126.80054      -2.08192182    
  0.479746491      0.140866295     -0.490909100       2297.57202      -2.24561977    
  0.500000000       0.00000000     -0.490909100       2297.57202      -2.24561977    
  0.500000000       0.00000000     -0.572727323       2297.57202      -2.24561977    
  0.479746491      0.140866295     -0.572727323       2297.57202      -2.24561977    
  0.420626789      0.270320386     -0.490909100       1849.56287      -2.28578901    
  0.479746491      0.140866295     -0.490909100       1849.56287      -2.28578901    
  0.479746491      0.140866295     -0.572727323       1849.56287      -2.28578901    
  0.420626789      0.270320386     -0.572727323       1849.56287      -2.28578901    
  0.327430397      0.377874792     -0.490909100       1108.52979      -2.34563518    
  0.420626789      0.270320386     -0.490909100       1108.52979      -2.34563518    
  0.420626789      0.270320386     -0.572727323       1108.52979      -2.34563518    
  0.327430397      0.377874792     -0.572727323       1108.52979      -2.34563518    
  0.207707494      0.454816014     -0.490909100       337.753296      -2.19191360    
  0.327430397      0.377874792     -0.490909100       337.753296      -2.19191360    
  0.327430397      0.377874792     -0.572727323       337.753296      -2.19191360    
  0.207707494      0.454816014     -0.572727323       337.753296      -2.19191360    
   7.11574182E-02  0.494910687     -0.490909100       361.630310     -0.244535014    
  0.207707494      0.454816014     -0.490909100       361.630310     -0.244535014    
  0.207707494      0.454816014     -0.572727323       361.630310     -0.244535014    
   7.11574182E-02  0.494910687     -0.572727323       361.630310     -0.244535014    
  -7.11574182E-02  0.494910687     -0.490909100       709.800720     -0.403529018    
   7.11574182E-02  0.494910687     -0.490909100       709.800720     -0.403529018    
   7.11574182E-02  0.494910687     -0.572727323       709.800720     -0.403529018    
  -7.11574182E-02  0.494910687     -0.572727323       709.800720     -0.403529018    
 -0.207707494      0.454816014     -0.490909100       907.810120     -0.857960761    
  -7.11574182E-02  0.494910687     -0.490909100       907.810120     -0.857960761    
  -7.11574182E-02  0.494910687     -0.572727323       907.810120     -0.857960761    
 -0.207707494      0.454816014     -0.572727323       907.810120     -0.857960761    
 -0.327430397      0.377874792     -0.490909100       1107.54565      -1.35191762    
 -0.207707494      0.454816014     -0.490909100       1107.54565      -1.35191762    
 -0.207707494      0.454816014     -0.572727323       1107.54565      -1.35191762    
 -0.327430397      0.377874792     -0.572727323       1107.54565      -1.35191762    
 -0.420626789      0.270320386     -0.490909100       1342.28101      -1.73359311    
 -0.327430397      0.377874792     -0.490909100       1342.28101      -1.73359311    
 -0.327430397      0.377874792     -0.572727323       1342.28101      -1.73359311    
 -0.420626789      0.270320386     -0.572727323       1342.28101      -1.73359311    
 -0.479746491      0.140866295     -0.490909100       1539.96838      -1.97071445    
 -0.420626789      0.270320386     -0.490909100       1539.96838      -1.97071445    
 -0.420626789      0.270320386     -0.572727323       1539.96838      -1.97071445    
 -0.479746491      0.140866295     -0.572727323       1539.96838      -1.97071445    
 -0.500000000       2.84000009E-16 -0.490909100       1646.72668      -2.08243251    
 -0.479746491      0.140866295     -0.490909100       1646.72668      -2.08243251    
 -0.479746491      0.140866295     -0.572727323       1646.72668      -2.08243251    
 -0.500000000       2.84000009E-16 -0.572727323       1646.72668      -2.08243251    
  0.479746491      0.140866295     -0.572727323       1816.20862      -2.23563528    
  0.500000000       0.00000000     -0.572727323       1816.20862      -2.23563528    
  0.500000000       0.00000000     -0.654545426       1816.20862      -2.23563528    
  0.479746491      0.140866295     -0.654545426       1816.20862      -2.23563528    
  0.420626789      0.270320386     -0.572727323       1464.91199      -2.27452254    
  0.479746491      0.140866295     -0.572727323       1464.91199      -2.27452254    
  0.479746491      0.140866295     -0.654545426       1464.91199      -2.27452254    
  0.420626789      0.270320386     -0.654545426       1464.91199      -2.27452254    
  0.327430397      0.377874792     -0.572727323       883.910828      -2.33048391    
  0.420626789      0.270320386     -0.572727323       883.910828      -2.33048391    
  0.420626789      0.270320386     -0.654545426       883.910828      -2.33048391    
  0.327430397      0.377874792     -0.654545426       883.910828      -2.33048391    
  0.207707494      0.454816014     -0.572727323       280.908691      -2.17057776    
  0.327430397      0.377874792     -0.572727323       280.908691      -2.17057776    
  0.327430397      0.377874792     -0.654545426       280.908691      -2.17057776    
  0.207707494      0.454816014     -0.654545426       280.908691      -2.17057776    
   7.11574182E-02  0.494910687     -0.572727323       279.783722     -0.292794406    
  0.207707494      0.454816014     -0.572727323       279.783722     -0.292794406    
  0.207707494      0.454816014     -0.654545426       279.783722     -0.292794406    
   7.11574182E-02  0.494910687     -0.654545426       279.783722     -0.292794406    
  -7.11574182E-02  0.494910687     -0.572727323       551.894287     -0.421234846    
   7.11574182E-02  0.494910687     -0.572727323       551.894287     -0.421234846    
   7.11574182E-02  0.494910687     -0.654545426       551.894287     -0.421234846    
  -7.11574182E-02  0.494910687     -0.654545426       551.894287     -0.421234846    
 -0.207707494      0.454816014     -0.572727323       708.933044     -0.867591619    
  -7.11574182E-02  0.494910687     -0.572727323       708.933044     -0.867591619    
  -7.11574182E-02  0.494910687     -0.654545426       708.933044     -0.867591619    
 -0.207707494      0.454816014     -0.654545426       708.933044     -0.867591619    
 -0.327430397      0.377874792     -0.572727323       865.740601      -1.35618234    
 -0.207707494      0.454816014     -0.572727323       865.740601      -1.35618234    
 -0.207707494      0.454816014     -0.654545426       865.740601      -1.35618234    
 -0.327430397      0.377874792     -0.654545426       865.740601      -1.35618234    
 -0.420626789      0.270320386     -0.572727323       1047.89917      -1.73472810    
 -0.327430397      0.377874792     -0.572727323       1047.89917      -1.73472810    
 -0.327430397      0.377874792     -0.654545426       1047.89917      -1.73472810    
 -0.420626789      0.270320386     -0.654545426       1047.89917      -1.73472810    
 -0.479746491      0.140866295     -0.572727323       1200.45581      -1.97045541    
 -0.420626789      0.270320386     -0.572727323       1200.45581      -1.97045541    
 -0.420626789      0.270320386     -0.654545426       1200.45581      -1.97045541    