 VARIABLES="X" "Y" "Z" "abs(p) (Pa)" "angle(p) (rad)"
ZONE N=    528,E =     462, F=FEPOINT, ET=QUADRILATERAL
  0.479746491      0.140866295       0.00000000       670.602722      -1.51457405    
  0.500000000       0.00000000       0.00000000       670.602722      -1.51457405    
  0.500000000       0.00000000      -8.18181783E-02   670.602722      -1.51457405    
  0.479746491      0.140866295      -8.18181783E-02   670.602722      -1.51457405    
  0.420626789      0.270320386       0.00000000       616.274353      -1.51457405    
  0.479746491      0.140866295       0.00000000       616.274353      -1.51457405    
  0.479746491      0.140866295      -8.18181783E-02   616.274353      -1.51457405    
  0.420626789      0.270320386      -8.18181783E-02   616.274353      -1.51457405    
  0.327430397      0.377874792       0.00000000       512.019287      -1.51457417    
  0.420626789      0.270320386       0.00000000       512.019287      -1.51457417    
  0.420626789      0.270320386      -8.18181783E-02   512.019287      -1.51457417    
  0.327430397      0.377874792      -8.18181783E-02   512.019287      -1.51457417    
  0.207707494      0.454816014       0.00000000       366.283508      -1.51457429    
  0.327430397      0.377874792       0.00000000       366.283508      -1.51457429    
  0.327430397      0.377874792      -8.18181783E-02   366.283508      -1.51457429    
  0.207707494      0.454816014      -8.18181783E-02   366.283508      -1.51457429    
   7.11574182E-02  0.494910687       0.00000000       190.873383      -1.51457429    
  0.207707494      0.454816014       0.00000000       190.873383      -1.51457429    
  0.207707494      0.454816014      -8.18181783E-02   190.873383      -1.51457429    
   7.11574182E-02  0.494910687      -8.18181783E-02   190.873383      -1.51457429    
  -7.11574182E-02  0.494910687       0.00000000       7.67983802E-05   2.41481209    
   7.11574182E-02  0.494910687       0.00000000       7.67983802E-05   2.41481209    
   7.11574182E-02  0.494910687      -8.18181783E-02   7.67983802E-05   2.41481209    
  -7.11574182E-02  0.494910687      -8.18181783E-02   7.67983802E-05   2.41481209    
 -0.207707494      0.454816014       0.00000000       190.873550       1.62701893    
  -7.11574182E-02  0.494910687       0.00000000       190.873550       1.62701893    
  -7.11574182E-02  0.494910687      -8.18181783E-02   190.873550       1.62701893    
 -0.207707494      0.454816014      -8.18181783E-02   190.873550       1.62701893    
 -0.327430397      0.377874792       0.00000000       366.283539       1.62701881    
 -0.207707494      0.454816014       0.00000000       366.283539       1.62701881    
 -0.207707494      0.454816014      -8.18181783E-02   366.283539       1.62701881    
 -0.327430397      0.377874792      -8.18181783E-02   366.283539       1.62701881    
 -0.420626789      0.270320386       0.00000000       512.019714       1.62701869    
 -0.327430397      0.377874792       0.00000000       512.019714       1.62701869    
 -0.327430397      0.377874792      -8.18181783E-02   512.019714       1.62701869    
 -0.420626789      0.270320386      -8.18181783E-02   512.019714       1.62701869    
 -0.479746491      0.140866295       0.00000000       616.274597       1.62701869    
 -0.420626789      0.270320386       0.00000000       616.274597       1.62701869    
 -0.420626789      0.270320386      -8.18181783E-02   616.274597       1.62701869    
 -0.479746491      0.140866295      -8.18181783E-02   616.274597       1.62701869    
 -0.500000000       2.84000009E-16   0.00000000       670.602966       1.62701869    
 -0.479746491      0.140866295       0.00000000       670.602966       1.62701869    
 -0.479746491      0.140866295      -8.18181783E-02   670.602966       1.62701869    
 -0.500000000       2.84000009E-16  -8.18181783E-02   670.602966       1.62701869    
  0.479746491      0.140866295      -8.18181783E-02   664.160339      -1.51469183    
  0.500000000       0.00000000      -8.18181783E-02   664.160339      -1.51469183    
  0.500000000       0.00000000     -0.163636401       664.160339      -1.51469183    
  0.479746491      0.140866295     -0.163636401       664.160339      -1.51469183    
  0.420626789      0.270320386      -8.18181783E-02   610.354004      -1.51469183    
  0.479746491      0.140866295      -8.18181783E-02   610.354004      -1.51469183    
  0.479746491      0.140866295     -0.163636401       610.354004      -1.51469183    
  0.420626789      0.270320386     -0.163636401       610.354004      -1.51469183    
  0.327430397      0.377874792      -8.18181783E-02   507.100342      -1.51469183    
  0.420626789      0.270320386      -8.18181783E-02   507.100342      -1.51469183    
  0.420626789      0.270320386     -0.163636401       507.100342      -1.51469183    
  0.327430397      0.377874792     -0.163636401       507.100342      -1.51469183    
  0.207707494      0.454816014      -8.18181783E-02   362.764343      -1.51469195    
  0.327430397      0.377874792      -8.18181783E-02   362.764343      -1.51469195    
  0.327430397      0.377874792     -0.163636401       362.764343      -1.51469195    
  0.207707494      0.454816014     -0.163636401       362.764343      -1.51469195    
   7.11574182E-02  0.494910687      -8.18181783E-02   189.039551      -1.51469195    
  0.207707494      0.454816014      -8.18181783E-02   189.039551      -1.51469195    
  0.207707494      0.454816014     -0.163636401       189.039551      -1.51469195    
   7.11574182E-02  0.494910687     -0.163636401       189.039551      -1.51469195    
  -7.11574182E-02  0.494910687      -8.18181783E-02   9.08115107E-05   2.38999462    
   7.11574182E-02  0.494910687      -8.18181783E-02   9.08115107E-05   2.38999462    
   7.11574182E-02  0.494910687     -0.163636401       9.08115107E-05   2.38999462    
  -7.11574182E-02  0.494910687     -0.163636401       9.08115107E-05   2.38999462    
 -0.207707494      0.454816014      -8.18181783E-02   189.039810       1.62690127    
  -7.11574182E-02  0.494910687      -8.18181783E-02   189.039810       1.62690127    
  -7.11574182E-02  0.494910687     -0.163636401       189.039810       1.62690127    
 -0.207707494      0.454816014     -0.163636401       189.039810       1.62690127    
 -0.327430397      0.377874792      -8.18181783E-02   362.764587       1.62690115    
 -0.207707494      0.454816014      -8.18181783E-02   362.764587       1.62690115    
 -0.207707494      0.454816014     -0.163636401       362.764587       1.62690115    
 -0.327430397      0.377874792     -0.163636401       362.764587       1.62690115    
 -0.420626789      0.270320386      -8.18181783E-02   507.100433       1.62690103    
 -0.327430397      0.377874792      -8.18181783E-02   507.100433       1.62690103    
 -0.327430397      0.377874792     -0.163636401       507.100433       1.62690103    
 -0.420626789      0.270320386     -0.163636401       507.100433       1.62690103    
 -0.479746491      0.140866295      -8.18181783E-02   610.354187       1.62690103    
 -0.420626789      0.270320386      -8.18181783E-02   610.354187       1.62690103    
 -0.420626789      0.270320386     -0.163636401       610.354187       1.62690103    
 -0.479746491      0.140866295     -0.163636401       610.354187       1.62690103    
 -0.500000000       2.84000009E-16  -8.18181783E-02   664.160522       1.62690091    
 -0.479746491      0.140866295      -8.18181783E-02   664.160522       1.62690091    
 -0.479746491      0.140866295     -0.163636401       664.160522       1.62690091    
 -0.500000000       2.84000009E-16 -0.163636401       664.160522       1.62690091    
  0.479746491      0.140866295     -0.163636401       657.229004      -1.51478851    
  0.500000000       0.00000000     -0.163636401       657.229004      -1.51478851    
  0.500000000       0.00000000     -0.245454505       657.229004      -1.51478851    
  0.479746491      0.140866295     -0.245454505       657.229004      -1.51478851    
  0.420626789      0.270320386     -0.163636401       603.984009      -1.51478839    
  0.479746491      0.140866295     -0.163636401       603.984009      -1.51478839    
  0.479746491      0.140866295     -0.245454505       603.984009      -1.51478839    
  0.420626789      0.270320386     -0.245454505       603.984009      -1.51478839    
  0.327430397      0.377874792     -0.163636401       501.807922      -1.51478839    
  0.420626789      0.270320386     -0.163636401       501.807922      -1.51478839    
  0.420626789      0.270320386     -0.245454505       501.807922      -1.51478839    
  0.327430397      0.377874792     -0.245454505       501.807922      -1.51478839    
  0.207707494      0.454816014     -0.163636401       358.978485      -1.51478851    
  0.327430397      0.377874792     -0.163636401       358.978485      -1.51478851    
  0.327430397      0.377874792     -0.245454505       358.978485      -1.51478851    
  0.207707494      0.454816014     -0.245454505       358.978485      -1.51478851    
   7.11574182E-02  0.494910687     -0.163636401       187.066757      -1.51478875    
  0.207707494      0.454816014     -0.163636401       187.066757      -1.51478875    
  0.207707494      0.454816014     -0.245454505       187.066757      -1.51478875    
   7.11574182E-02  0.494910687     -0.245454505       187.066757      -1.51478875    
  -7.11574182E-02  0.494910687     -0.163636401       9.03679538E-05   2.31548905    
   7.11574182E-02  0.494910687     -0.163636401       9.03679538E-05   2.31548905    
   7.11574182E-02  0.494910687     -0.245454505       9.03679538E-05   2.31548905    
  -7.11574182E-02  0.494910687     -0.245454505       9.03679538E-05   2.31548905    
 -0.207707494      0.454816014     -0.163636401       187.066849       1.62680459    
  -7.11574182E-02  0.494910687     -0.163636401       187.066849       1.62680459    
  -7.11574182E-02  0.494910687     -0.245454505       187.066849       1.62680459    
 -0.207707494      0.454816014     -0.245454505       187.066849       1.62680459    
 -0.327430397      0.377874792     -0.163636401       358.978638       1.62680447    
 -0.207707494      0.454816014     -0.163636401       358.978638       1.62680447    
 -0.207707494      0.454816014     -0.245454505       358.978638       1.62680447    
 -0.327430397      0.377874792     -0.245454505       358.978638       1.62680447    
 -0.420626789      0.270320386     -0.163636401       501.807922       1.62680447    
 -0.327430397      0.377874792     -0.163636401       501.807922       1.62680447    
 -0.327430397      0.377874792     -0.245454505       501.807922       1.62680447    
 -0.420626789      0.270320386     -0.245454505       501.807922       1.62680447    
 -0.479746491      0.140866295     -0.163636401       603.984070       1.62680447    
 -0.420626789      0.270320386     -0.163636401       603.984070       1.62680447    
 -0.420626789      0.270320386     -0.245454505       603.984070       1.62680447    
 -0.479746491      0.140866295     -0.245454505       603.984070       1.62680447    
 -0.500000000       2.84000009E-16 -0.163636401       657.229065       1.62680435    
 -0.479746491      0.140866295     -0.163636401       657.229065       1.62680435    
 -0.479746491      0.140866295     -0.245454505       657.229065       1.62680435    
 -0.500000000       2.84000009E-16 -0.245454505       657.229065       1.62680435    
  0.479746491      0.140866295     -0.245454505       649.941956      -1.51485097    
  0.500000000       0.00000000     -0.245454505       649.941956      -1.51485097    
  0.500000000       0.00000000     -0.327272713       649.941956      -1.51485097    
  0.479746491      0.140866295     -0.327272713       649.941956      -1.51485097    
  0.420626789      0.270320386     -0.245454505       597.287659      -1.51485109    
  0.479746491      0.140866295     -0.245454505       597.287659      -1.51485109    
  0.479746491      0.140866295     -0.327272713       597.287659      -1.51485109    
  0.420626789      0.270320386     -0.327272713       597.287659      -1.51485109    
  0.327430397      0.377874792     -0.245454505       496.244202      -1.51485097    
  0.420626789      0.270320386     -0.245454505       496.244202      -1.51485097    
  0.420626789      0.270320386     -0.327272713       496.244202      -1.51485097    
  0.327430397      0.377874792     -0.327272713       496.244202      -1.51485097    
  0.207707494      0.454816014     -0.245454505       354.998322      -1.51485109    
  0.327430397      0.377874792     -0.245454505       354.998322      -1.51485109    
  0.327430397      0.377874792     -0.327272713       354.998322      -1.51485109    
  0.207707494      0.454816014     -0.327272713       354.998322      -1.51485109    
   7.11574182E-02  0.494910687     -0.245454505       184.992599      -1.51485121    
  0.207707494      0.454816014     -0.245454505       184.992599      -1.51485121    
  0.207707494      0.454816014     -0.327272713       184.992599      -1.51485121    
   7.11574182E-02  0.494910687     -0.327272713       184.992599      -1.51485121    
  -7.11574182E-02  0.494910687     -0.245454505       7.24491183E-05   2.66840410    
   7.11574182E-02  0.494910687     -0.245454505       7.24491183E-05   2.66840410    
   7.11574182E-02  0.494910687     -0.327272713       7.24491183E-05   2.66840410    
  -7.11574182E-02  0.494910687     -0.327272713       7.24491183E-05   2.66840410    
 -0.207707494      0.454816014     -0.245454505       184.992767       1.62674212    
  -7.11574182E-02  0.494910687     -0.245454505       184.992767       1.62674212    
  -7.11574182E-02  0.494910687     -0.327272713       184.992767       1.62674212    
 -0.207707494      0.454816014     -0.327272713       184.992767       1.62674212    
 -0.327430397      0.377874792     -0.245454505       354.998566       1.62674189    
 -0.207707494      0.454816014     -0.245454505       354.998566       1.62674189    
 -0.207707494      0.454816014     -0.327272713       354.998566       1.62674189    
 -0.327430397      0.377874792     -0.327272713       354.998566       1.62674189    
 -0.420626789      0.270320386     -0.245454505       496.244629       1.62674177    
 -0.327430397      0.377874792     -0.245454505       496.244629       1.62674177    
 -0.327430397      0.377874792     -0.327272713       496.244629       1.62674177    
 -0.420626789      0.270320386     -0.327272713       496.244629       1.62674177    
 -0.479746491      0.140866295     -0.245454505       597.287842       1.62674189    
 -0.420626789      0.270320386     -0.245454505       597.287842       1.62674189    
 -0.420626789      0.270320386     -0.327272713       597.287842       1.62674189    
 -0.479746491      0.140866295     -0.327272713       597.287842       1.62674189    
 -0.500000000       2.84000009E-16 -0.245454505       649.942139       1.62674189    
 -0.479746491      0.140866295     -0.245454505       649.942139       1.62674189    
 -0.479746491      0.140866295     -0.327272713       649.942139       1.62674189    
 -0.500000000       2.84000009E-16 -0.327272713       649.942139       1.62674189    
  0.479746491      0.140866295     -0.327272713       641.860046      -1.51485050    
  0.500000000       0.00000000     -0.327272713       641.860046      -1.51485050    
  0.500000000       0.00000000     -0.409090906       641.860046      -1.51485050    
  0.479746491      0.140866295     -0.409090906       641.860046      -1.51485050    
  0.420626789      0.270320386     -0.327272713       589.859680      -1.51485050    
  0.479746491      0.140866295     -0.327272713       589.859680      -1.51485050    
  0.479746491      0.140866295     -0.409090906       589.859680      -1.51485050    
  0.420626789      0.270320386     -0.409090906       589.859680      -1.51485050    
  0.327430397      0.377874792     -0.327272713       490.073425      -1.51485050    
  0.420626789      0.270320386     -0.327272713       490.073425      -1.51485050    
  0.420626789      0.270320386     -0.409090906       490.073425      -1.51485050    
  0.327430397      0.377874792     -0.409090906       490.073425      -1.51485050    
  0.207707494      0.454816014     -0.327272713       350.584106      -1.51485062    
  0.327430397      0.377874792     -0.327272713       350.584106      -1.51485062    
  0.327430397      0.377874792     -0.409090906       350.584106      -1.51485062    
  0.207707494      0.454816014     -0.409090906       350.584106      -1.51485062    
   7.11574182E-02  0.494910687     -0.327272713       182.692276      -1.51485074    
  0.207707494      0.454816014     -0.327272713       182.692276      -1.51485074    
  0.207707494      0.454816014     -0.409090906       182.692276      -1.51485074    
   7.11574182E-02  0.494910687     -0.409090906       182.692276      -1.51485074    
  -7.11574182E-02  0.494910687     -0.327272713       8.62853631E-05   2.12967610    
   7.11574182E-02  0.494910687     -0.327272713       8.62853631E-05   2.12967610    
   7.11574182E-02  0.494910687     -0.409090906       8.62853631E-05   2.12967610    
  -7.11574182E-02  0.494910687     -0.409090906       8.62853631E-05   2.12967610    
 -0.207707494      0.454816014     -0.327272713       182.692444       1.62674260    
  -7.11574182E-02  0.494910687     -0.327272713       182.692444       1.62674260    
  -7.11574182E-02  0.494910687     -0.409090906       182.692444       1.62674260    
 -0.207707494      0.454816014     -0.409090906       182.692444       1.62674260    
 -0.327430397      0.377874792     -0.327272713       350.584259       1.62674236    
 -0.207707494      0.454816014     -0.327272713       350.584259       1.62674236    
 -0.207707494      0.454816014     -0.409090906       350.584259       1.62674236    
 -0.327430397      0.377874792     -0.409090906       350.584259       1.62674236    
 -0.420626789      0.270320386     -0.327272713       490.073364       1.62674236    
 -0.327430397      0.377874792     -0.327272713       490.073364       1.62674236    
 -0.327430397      0.377874792     -0.409090906       490.073364       1.62674236    
 -0.420626789      0.270320386     -0.409090906       490.073364       1.62674236    
 -0.479746491      0.140866295     -0.327272713       589.859985       1.62674236    
 -0.420626789      0.270320386     -0.327272713       589.859985       1.62674236    
 -0.420626789      0.270320386     -0.409090906       589.859985       1.62674236    
 -0.479746491      0.140866295     -0.409090906       589.859985       1.62674236    
 -0.500000000       2.84000009E-16 -0.327272713       641.860168       1.62674224    
 -0.479746491      0.140866295     -0.327272713       641.860168       1.62674224    
 -0.479746491      0.140866295     -0.409090906       641.860168       1.62674224    
 -0.500000000       2.84000009E-16 -0.409090906       641.860168       1.62674224    
  0.479746491      0.140866295     -0.409090906       632.457336      -1.51475561    
  0.500000000       0.00000000     -0.409090906       632.457336      -1.51475561    
  0.500000000       0.00000000     -0.490909100       632.457336      -1.51475561    
  0.479746491      0.140866295     -0.490909100       632.457336      -1.51475561    
  0.420626789      0.270320386     -0.409090906       581.219727      -1.51475549    
  0.479746491      0.140866295     -0.409090906       581.219727      -1.51475549    
  0.479746491      0.140866295     -0.490909100       581.219727      -1.51475549    
  0.420626789      0.270320386     -0.490909100       581.219727      -1.51475549    
  0.327430397      0.377874792     -0.409090906       482.894470      -1.51475561    
  0.420626789      0.270320386     -0.409090906       482.894470      -1.51475561    
  0.420626789      0.270320386     -0.490909100       482.894470      -1.51475561    
  0.327430397      0.377874792     -0.490909100       482.894470      -1.51475561    
  0.207707494      0.454816014     -0.409090906       345.448456      -1.51475561    
  0.327430397      0.377874792     -0.409090906       345.448456      -1.51475561    
  0.327430397      0.377874792     -0.490909100       345.448456      -1.51475561    
  0.207707494      0.454816014     -0.490909100       345.448456      -1.51475561    
   7.11574182E-02  0.494910687     -0.409090906       180.016113      -1.51475573    
  0.207707494      0.454816014     -0.409090906       180.016113      -1.51475573    
  0.207707494      0.454816014     -0.490909100       180.016113      -1.51475573    
   7.11574182E-02  0.494910687     -0.490909100       180.016113      -1.51475573    
  -7.11574182E-02  0.494910687     -0.409090906       8.03705116E-05   2.52770638    
   7.11574182E-02  0.494910687     -0.409090906       8.03705116E-05   2.52770638    
   7.11574182E-02  0.494910687     -0.490909100       8.03705116E-05   2.52770638    
  -7.11574182E-02  0.494910687     -0.490909100       8.03705116E-05   2.52770638    
 -0.207707494      0.454816014     -0.409090906       180.016251       1.62683749    
  -7.11574182E-02  0.494910687     -0.409090906       180.016251       1.62683749    
  -7.11574182E-02  0.494910687     -0.490909100       180.016251       1.62683749    
 -0.207707494      0.454816014     -0.490909100       180.016251       1.62683749    
 -0.327430397      0.377874792     -0.409090906       345.448700       1.62683737    
 -0.207707494      0.454816014     -0.409090906       345.448700       1.62683737    
 -0.207707494      0.454816014     -0.490909100       345.448700       1.62683737    
 -0.327430397      0.377874792     -0.490909100       345.448700       1.62683737    
 -0.420626789      0.270320386     -0.409090906       482.894531       1.62683725    
 -0.327430397      0.377874792     -0.409090906       482.894531       1.62683725    
 -0.327430397      0.377874792     -0.490909100       482.894531       1.62683725    
 -0.420626789      0.270320386     -0.490909100       482.894531       1.62683725    
 -0.479746491      0.140866295     -0.409090906       581.220093       1.62683725    
 -0.420626789      0.270320386     -0.409090906       581.220093       1.62683725    
 -0.420626789      0.270320386     -0.490909100       581.220093       1.62683725    
 -0.479746491      0.140866295     -0.490909100       581.220093       1.62683725    
 -0.500000000       2.84000009E-16 -0.409090906       632.457642       1.62683725    
 -0.479746491      0.140866295     -0.409090906       632.457642       1.62683725    
 -0.479746491      0.140866295     -0.490909100       632.457642       1.62683725    
 -0.500000000       2.84000009E-16 -0.490909100       632.457642       1.62683725    
  0.479746491      0.140866295     -0.490909100       620.948608      -1.51452148    
  0.500000000       0.00000000     -0.490909100       620.948608      -1.51452148    
  0.500000000       0.00000000     -0.572727323       620.948608      -1.51452148    
  0.479746491      0.140866295     -0.572727323       620.948608      -1.51452148    
  0.420626789      0.270320386     -0.490909100       570.643311      -1.51452160    
  0.479746491      0.140866295     -0.490909100       570.643311      -1.51452160    
  0.479746491      0.140866295     -0.572727323       570.643311      -1.51452160    
  0.420626789      0.270320386     -0.572727323       570.643311      -1.51452160    
  0.327430397      0.377874792     -0.490909100       474.107391      -1.51452148    
  0.420626789      0.270320386     -0.490909100       474.107391      -1.51452148    
  0.420626789      0.270320386     -0.572727323       474.107391      -1.51452148    
  0.327430397      0.377874792     -0.572727323       474.107391      -1.51452148    
  0.207707494      0.454816014     -0.490909100       339.162476      -1.51452160    
  0.327430397      0.377874792     -0.490909100       339.162476      -1.51452160    
  0.327430397      0.377874792     -0.572727323       339.162476      -1.51452160    
  0.207707494      0.454816014     -0.572727323       339.162476      -1.51452160    
   7.11574182E-02  0.494910687     -0.490909100       176.740341      -1.51452172    
  0.207707494      0.454816014     -0.490909100       176.740341      -1.51452172    
  0.207707494      0.454816014     -0.572727323       176.740341      -1.51452172    
   7.11574182E-02  0.494910687     -0.572727323       176.740341      -1.51452172    
  -7.11574182E-02  0.494910687     -0.490909100       7.70639017E-05   2.45249462    
   7.11574182E-02  0.494910687     -0.490909100       7.70639017E-05   2.45249462    
   7.11574182E-02  0.494910687     -0.572727323       7.70639017E-05   2.45249462    
  -7.11574182E-02  0.494910687     -0.572727323       7.70639017E-05   2.45249462    
 -0.207707494      0.454816014     -0.490909100       176.740433       1.62707162    
  -7.11574182E-02  0.494910687     -0.490909100       176.740433       1.62707162    
  -7.11574182E-02  0.494910687     -0.572727323       176.740433       1.62707162    
 -0.207707494      0.454816014     -0.572727323       176.740433       1.62707162    
 -0.327430397      0.377874792     -0.490909100       339.162476       1.62707138    
 -0.207707494      0.454816014     -0.490909100       339.162476       1.62707138    
 -0.207707494      0.454816014     -0.572727323       339.162476       1.62707138    
 -0.327430397      0.377874792     -0.572727323       339.162476       1.62707138    
 -0.420626789      0.270320386     -0.490909100       474.107330       1.62707138    
 -0.327430397      0.377874792     -0.490909100       474.107330       1.62707138    
 -0.327430397      0.377874792     -0.572727323       474.107330       1.62707138    
 -0.420626789      0.270320386     -0.572727323       474.107330       1.62707138    
 -0.479746491      0.140866295     -0.490909100       570.643311       1.62707138    
 -0.420626789      0.270320386     -0.490909100       570.643311       1.62707138    
 -0.420626789      0.270320386     -0.572727323       570.643311       1.62707138    
 -0.479746491      0.140866295     -0.572727323       570.643311       1.62707138    
 -0.500000000       2.84000009E-16 -0.490909100       620.948547       1.62707138    
 -0.479746491      0.140866295     -0.490909100       620.948547       1.62707138    
 -0.479746491      0.140866295     -0.572727323       620.948547       1.62707138    
 -0.500000000       2.84000009E-16 -0.572727323       620.948547       1.62707138    
  0.479746491      0.140866295     -0.572727323       606.077759      -1.51407576    
  0.500000000       0.00000000     -0.572727323       606.077759      -1.51407576    
  0.500000000       0.00000000     -0.654545426       606.077759      -1.51407576    
  0.479746491      0.140866295     -0.654545426       606.077759      -1.51407576    
  0.420626789      0.270320386     -0.572727323       556.977234      -1.51407576    
  0.479746491      0.140866295     -0.572727323       556.977234      -1.51407576    
  0.479746491      0.140866295     -0.654545426       556.977234      -1.51407576    
  0.420626789      0.270320386     -0.654545426       556.977234      -1.51407576    
  0.327430397      0.377874792     -0.572727323       462.752960      -1.51407576    
  0.420626789      0.270320386     -0.572727323       462.752960      -1.51407576    
  0.420626789      0.270320386     -0.654545426       462.752960      -1.51407576    
  0.327430397      0.377874792     -0.654545426       462.752960      -1.51407576    
  0.207707494      0.454816014     -0.572727323       331.039734      -1.51407576    
  0.327430397      0.377874792     -0.572727323       331.039734      -1.51407576    
  0.327430397      0.377874792     -0.654545426       331.039734      -1.51407576    
  0.207707494      0.454816014     -0.654545426       331.039734      -1.51407576    
   7.11574182E-02  0.494910687     -0.572727323       172.507584      -1.51407588    
  0.207707494      0.454816014     -0.572727323       172.507584      -1.51407588    
  0.207707494      0.454816014     -0.654545426       172.507584      -1.51407588    
   7.11574182E-02  0.494910687     -0.654545426       172.507584      -1.51407588    
  -7.11574182E-02  0.494910687     -0.572727323       7.73615029E-05   2.38165545    
   7.11574182E-02  0.494910687     -0.572727323       7.73615029E-05   2.38165545    
   7.11574182E-02  0.494910687     -0.654545426       7.73615029E-05   2.38165545    
  -7.11574182E-02  0.494910687     -0.654545426       7.73615029E-05   2.38165545    
 -0.207707494      0.454816014     -0.572727323       172.507736       1.62751746    
  -7.11574182E-02  0.494910687     -0.572727323       172.507736       1.62751746    
  -7.11574182E-02  0.494910687     -0.654545426       172.507736       1.62751746    
 -0.207707494      0.454816014     -0.654545426       172.507736       1.62751746    
 -0.327430397      0.377874792     -0.572727323       331.039886       1.62751722    
 -0.207707494      0.454816014     -0.572727323       331.039886       1.62751722    
 -0.207707494      0.454816014     -0.654545426       331.039886       1.62751722    
 -0.327430397      0.377874792     -0.654545426       331.039886       1.62751722    
 -0.420626789      0.270320386     -0.572727323       462.753021       1.62751710    
 -0.327430397      0.377874792     -0.572727323       462.753021       1.62751710    
 -0.327430397      0.377874792     -0.654545426       462.753021       1.62751710    
 -0.420626789      0.270320386     -0.654545426       462.753021       1.62751710    
 -0.479746491      0.140866295     -0.572727323       556.977173       1.62751710    
 -0.420626789      0.270320386     -0.572727323       556.977173       1.62751710    
 -0.420626789      0.270320386     -0.654545426       556.977173       1.62751710    