 VARIABLES="X" "Y" "Z" "abs(p) (Pa)" "angle(p) (rad)"
ZONE N=    528,E =     462, F=FEPOINT, ET=QUADRILATERAL
  0.479746491      0.140866295       0.00000000       110.812218      -1.49841046    
  0.500000000       0.00000000       0.00000000       110.812218      -1.49841046    
  0.500000000       0.00000000      -8.18181783E-02   110.812218      -1.49841046    
  0.479746491      0.140866295      -8.18181783E-02   110.812218      -1.49841046    
  0.420626789      0.270320386       0.00000000       323.459320      -1.49840820    
  0.479746491      0.140866295       0.00000000       323.459320      -1.49840820    
  0.479746491      0.140866295      -8.18181783E-02   323.459320      -1.49840820    
  0.420626789      0.270320386      -8.18181783E-02   323.459320      -1.49840820    
  0.327430397      0.377874792       0.00000000       509.900665      -1.49840820    
  0.420626789      0.270320386       0.00000000       509.900665      -1.49840820    
  0.420626789      0.270320386      -8.18181783E-02   509.900665      -1.49840820    
  0.327430397      0.377874792      -8.18181783E-02   509.900665      -1.49840820    
  0.207707494      0.454816014       0.00000000       655.033630      -1.49840939    
  0.327430397      0.377874792       0.00000000       655.033630      -1.49840939    
  0.327430397      0.377874792      -8.18181783E-02   655.033630      -1.49840939    
  0.207707494      0.454816014      -8.18181783E-02   655.033630      -1.49840939    
   7.11574182E-02  0.494910687       0.00000000       747.099060      -1.49840868    
  0.207707494      0.454816014       0.00000000       747.099060      -1.49840868    
  0.207707494      0.454816014      -8.18181783E-02   747.099060      -1.49840868    
   7.11574182E-02  0.494910687      -8.18181783E-02   747.099060      -1.49840868    
  -7.11574182E-02  0.494910687       0.00000000       778.639709      -1.49840891    
   7.11574182E-02  0.494910687       0.00000000       778.639709      -1.49840891    
   7.11574182E-02  0.494910687      -8.18181783E-02   778.639709      -1.49840891    
  -7.11574182E-02  0.494910687      -8.18181783E-02   778.639709      -1.49840891    
 -0.207707494      0.454816014       0.00000000       747.099121      -1.49840868    
  -7.11574182E-02  0.494910687       0.00000000       747.099121      -1.49840868    
  -7.11574182E-02  0.494910687      -8.18181783E-02   747.099121      -1.49840868    
 -0.207707494      0.454816014      -8.18181783E-02   747.099121      -1.49840868    
 -0.327430397      0.377874792       0.00000000       655.033752      -1.49840939    
 -0.207707494      0.454816014       0.00000000       655.033752      -1.49840939    
 -0.207707494      0.454816014      -8.18181783E-02   655.033752      -1.49840939    
 -0.327430397      0.377874792      -8.18181783E-02   655.033752      -1.49840939    
 -0.420626789      0.270320386       0.00000000       509.900635      -1.49840844    
 -0.327430397      0.377874792       0.00000000       509.900635      -1.49840844    
 -0.327430397      0.377874792      -8.18181783E-02   509.900635      -1.49840844    
 -0.420626789      0.270320386      -8.18181783E-02   509.900635      -1.49840844    
 -0.479746491      0.140866295       0.00000000       323.459320      -1.49840879    
 -0.420626789      0.270320386       0.00000000       323.459320      -1.49840879    
 -0.420626789      0.270320386      -8.18181783E-02   323.459320      -1.49840879    
 -0.479746491      0.140866295      -8.18181783E-02   323.459320      -1.49840879    
 -0.500000000       2.84000009E-16   0.00000000       110.812103      -1.49840927    
 -0.479746491      0.140866295       0.00000000       110.812103      -1.49840927    
 -0.479746491      0.140866295      -8.18181783E-02   110.812103      -1.49840927    
 -0.500000000       2.84000009E-16  -8.18181783E-02   110.812103      -1.49840927    
  0.479746491      0.140866295      -8.18181783E-02   109.470558      -1.49860561    
  0.500000000       0.00000000      -8.18181783E-02   109.470558      -1.49860561    
  0.500000000       0.00000000     -0.163636401       109.470558      -1.49860561    
  0.479746491      0.140866295     -0.163636401       109.470558      -1.49860561    
  0.420626789      0.270320386      -8.18181783E-02   319.542419      -1.49860418    
  0.479746491      0.140866295      -8.18181783E-02   319.542419      -1.49860418    
  0.479746491      0.140866295     -0.163636401       319.542419      -1.49860418    
  0.420626789      0.270320386     -0.163636401       319.542419      -1.49860418    
  0.327430397      0.377874792      -8.18181783E-02   503.727753      -1.49860299    
  0.420626789      0.270320386      -8.18181783E-02   503.727753      -1.49860299    
  0.420626789      0.270320386     -0.163636401       503.727753      -1.49860299    
  0.327430397      0.377874792     -0.163636401       503.727753      -1.49860299    
  0.207707494      0.454816014      -8.18181783E-02   647.103271      -1.49860299    
  0.327430397      0.377874792      -8.18181783E-02   647.103271      -1.49860299    
  0.327430397      0.377874792     -0.163636401       647.103271      -1.49860299    
  0.207707494      0.454816014     -0.163636401       647.103271      -1.49860299    
   7.11574182E-02  0.494910687      -8.18181783E-02   738.055054      -1.49860287    
  0.207707494      0.454816014      -8.18181783E-02   738.055054      -1.49860287    
  0.207707494      0.454816014     -0.163636401       738.055054      -1.49860287    
   7.11574182E-02  0.494910687     -0.163636401       738.055054      -1.49860287    
  -7.11574182E-02  0.494910687      -8.18181783E-02   769.213623      -1.49860251    
   7.11574182E-02  0.494910687      -8.18181783E-02   769.213623      -1.49860251    
   7.11574182E-02  0.494910687     -0.163636401       769.213623      -1.49860251    
  -7.11574182E-02  0.494910687     -0.163636401       769.213623      -1.49860251    
 -0.207707494      0.454816014      -8.18181783E-02   738.055054      -1.49860275    
  -7.11574182E-02  0.494910687      -8.18181783E-02   738.055054      -1.49860275    
  -7.11574182E-02  0.494910687     -0.163636401       738.055054      -1.49860275    
 -0.207707494      0.454816014     -0.163636401       738.055054      -1.49860275    
 -0.327430397      0.377874792      -8.18181783E-02   647.103271      -1.49860263    
 -0.207707494      0.454816014      -8.18181783E-02   647.103271      -1.49860263    
 -0.207707494      0.454816014     -0.163636401       647.103271      -1.49860263    
 -0.327430397      0.377874792     -0.163636401       647.103271      -1.49860263    
 -0.420626789      0.270320386      -8.18181783E-02   503.727692      -1.49860311    
 -0.327430397      0.377874792      -8.18181783E-02   503.727692      -1.49860311    
 -0.327430397      0.377874792     -0.163636401       503.727692      -1.49860311    
 -0.420626789      0.270320386     -0.163636401       503.727692      -1.49860311    
 -0.479746491      0.140866295      -8.18181783E-02   319.542297      -1.49860418    
 -0.420626789      0.270320386      -8.18181783E-02   319.542297      -1.49860418    
 -0.420626789      0.270320386     -0.163636401       319.542297      -1.49860418    
 -0.479746491      0.140866295     -0.163636401       319.542297      -1.49860418    
 -0.500000000       2.84000009E-16  -8.18181783E-02   109.470833      -1.49860811    
 -0.479746491      0.140866295      -8.18181783E-02   109.470833      -1.49860811    
 -0.479746491      0.140866295     -0.163636401       109.470833      -1.49860811    
 -0.500000000       2.84000009E-16 -0.163636401       109.470833      -1.49860811    
  0.479746491      0.140866295     -0.163636401       108.107368      -1.49879277    
  0.500000000       0.00000000     -0.163636401       108.107368      -1.49879277    
  0.500000000       0.00000000     -0.245454505       108.107368      -1.49879277    
  0.479746491      0.140866295     -0.245454505       108.107368      -1.49879277    
  0.420626789      0.270320386     -0.163636401       315.563385      -1.49878824    
  0.479746491      0.140866295     -0.163636401       315.563385      -1.49878824    
  0.479746491      0.140866295     -0.245454505       315.563385      -1.49878824    
  0.420626789      0.270320386     -0.245454505       315.563385      -1.49878824    
  0.327430397      0.377874792     -0.163636401       497.455078      -1.49878955    
  0.420626789      0.270320386     -0.163636401       497.455078      -1.49878955    
  0.420626789      0.270320386     -0.245454505       497.455078      -1.49878955    
  0.327430397      0.377874792     -0.245454505       497.455078      -1.49878955    
  0.207707494      0.454816014     -0.163636401       639.045898      -1.49878955    
  0.327430397      0.377874792     -0.163636401       639.045898      -1.49878955    
  0.327430397      0.377874792     -0.245454505       639.045898      -1.49878955    
  0.207707494      0.454816014     -0.245454505       639.045898      -1.49878955    
   7.11574182E-02  0.494910687     -0.163636401       728.864197      -1.49878955    
  0.207707494      0.454816014     -0.163636401       728.864197      -1.49878955    
  0.207707494      0.454816014     -0.245454505       728.864197      -1.49878955    
   7.11574182E-02  0.494910687     -0.245454505       728.864197      -1.49878955    
  -7.11574182E-02  0.494910687     -0.163636401       759.635376      -1.49878943    
   7.11574182E-02  0.494910687     -0.163636401       759.635376      -1.49878943    
   7.11574182E-02  0.494910687     -0.245454505       759.635376      -1.49878943    
  -7.11574182E-02  0.494910687     -0.245454505       759.635376      -1.49878943    
 -0.207707494      0.454816014     -0.163636401       728.864014      -1.49878979    
  -7.11574182E-02  0.494910687     -0.163636401       728.864014      -1.49878979    
  -7.11574182E-02  0.494910687     -0.245454505       728.864014      -1.49878979    
 -0.207707494      0.454816014     -0.245454505       728.864014      -1.49878979    
 -0.327430397      0.377874792     -0.163636401       639.045410      -1.49878943    
 -0.207707494      0.454816014     -0.163636401       639.045410      -1.49878943    
 -0.207707494      0.454816014     -0.245454505       639.045410      -1.49878943    
 -0.327430397      0.377874792     -0.245454505       639.045410      -1.49878943    
 -0.420626789      0.270320386     -0.163636401       497.454773      -1.49878931    
 -0.327430397      0.377874792     -0.163636401       497.454773      -1.49878931    
 -0.327430397      0.377874792     -0.245454505       497.454773      -1.49878931    
 -0.420626789      0.270320386     -0.245454505       497.454773      -1.49878931    
 -0.479746491      0.140866295     -0.163636401       315.563416      -1.49878788    
 -0.420626789      0.270320386     -0.163636401       315.563416      -1.49878788    
 -0.420626789      0.270320386     -0.245454505       315.563416      -1.49878788    
 -0.479746491      0.140866295     -0.245454505       315.563416      -1.49878788    
 -0.500000000       2.84000009E-16 -0.163636401       108.107521      -1.49879479    
 -0.479746491      0.140866295     -0.163636401       108.107521      -1.49879479    
 -0.479746491      0.140866295     -0.245454505       108.107521      -1.49879479    
 -0.500000000       2.84000009E-16 -0.245454505       108.107521      -1.49879479    
  0.479746491      0.140866295     -0.245454505       106.726402      -1.49894023    
  0.500000000       0.00000000     -0.245454505       106.726402      -1.49894023    
  0.500000000       0.00000000     -0.327272713       106.726402      -1.49894023    
  0.479746491      0.140866295     -0.327272713       106.726402      -1.49894023    
  0.420626789      0.270320386     -0.245454505       311.533112      -1.49894047    
  0.479746491      0.140866295     -0.245454505       311.533112      -1.49894047    
  0.479746491      0.140866295     -0.327272713       311.533112      -1.49894047    
  0.420626789      0.270320386     -0.327272713       311.533112      -1.49894047    
  0.327430397      0.377874792     -0.245454505       491.100861      -1.49893975    
  0.420626789      0.270320386     -0.245454505       491.100861      -1.49893975    
  0.420626789      0.270320386     -0.327272713       491.100861      -1.49893975    
  0.327430397      0.377874792     -0.327272713       491.100861      -1.49893975    
  0.207707494      0.454816014     -0.245454505       630.883301      -1.49893939    
  0.327430397      0.377874792     -0.245454505       630.883301      -1.49893939    
  0.327430397      0.377874792     -0.327272713       630.883301      -1.49893939    
  0.207707494      0.454816014     -0.327272713       630.883301      -1.49893939    
   7.11574182E-02  0.494910687     -0.245454505       719.554321      -1.49893987    
  0.207707494      0.454816014     -0.245454505       719.554321      -1.49893987    
  0.207707494      0.454816014     -0.327272713       719.554321      -1.49893987    
   7.11574182E-02  0.494910687     -0.327272713       719.554321      -1.49893987    
  -7.11574182E-02  0.494910687     -0.245454505       749.931396      -1.49893975    
   7.11574182E-02  0.494910687     -0.245454505       749.931396      -1.49893975    
   7.11574182E-02  0.494910687     -0.327272713       749.931396      -1.49893975    
  -7.11574182E-02  0.494910687     -0.327272713       749.931396      -1.49893975    
 -0.207707494      0.454816014     -0.245454505       719.554321      -1.49894023    
  -7.11574182E-02  0.494910687     -0.245454505       719.554321      -1.49894023    
  -7.11574182E-02  0.494910687     -0.327272713       719.554321      -1.49894023    
 -0.207707494      0.454816014     -0.327272713       719.554321      -1.49894023    
 -0.327430397      0.377874792     -0.245454505       630.883179      -1.49893928    
 -0.207707494      0.454816014     -0.245454505       630.883179      -1.49893928    
 -0.207707494      0.454816014     -0.327272713       630.883179      -1.49893928    
 -0.327430397      0.377874792     -0.327272713       630.883179      -1.49893928    
 -0.420626789      0.270320386     -0.245454505       491.100922      -1.49893963    
 -0.327430397      0.377874792     -0.245454505       491.100922      -1.49893963    
 -0.327430397      0.377874792     -0.327272713       491.100922      -1.49893963    
 -0.420626789      0.270320386     -0.327272713       491.100922      -1.49893963    
 -0.479746491      0.140866295     -0.245454505       311.533020      -1.49893951    
 -0.420626789      0.270320386     -0.245454505       311.533020      -1.49893951    
 -0.420626789      0.270320386     -0.327272713       311.533020      -1.49893951    
 -0.479746491      0.140866295     -0.327272713       311.533020      -1.49893951    
 -0.500000000       2.84000009E-16 -0.245454505       106.726318      -1.49893987    
 -0.479746491      0.140866295     -0.245454505       106.726318      -1.49893987    
 -0.479746491      0.140866295     -0.327272713       106.726318      -1.49893987    
 -0.500000000       2.84000009E-16 -0.327272713       106.726318      -1.49893987    
  0.479746491      0.140866295     -0.327272713       105.251778      -1.49901605    
  0.500000000       0.00000000     -0.327272713       105.251778      -1.49901605    
  0.500000000       0.00000000     -0.409090906       105.251778      -1.49901605    
  0.479746491      0.140866295     -0.409090906       105.251778      -1.49901605    
  0.420626789      0.270320386     -0.327272713       307.228455      -1.49901235    
  0.479746491      0.140866295     -0.327272713       307.228455      -1.49901235    
  0.479746491      0.140866295     -0.409090906       307.228455      -1.49901235    
  0.420626789      0.270320386     -0.409090906       307.228455      -1.49901235    
  0.327430397      0.377874792     -0.327272713       484.315674      -1.49901211    
  0.420626789      0.270320386     -0.327272713       484.315674      -1.49901211    
  0.420626789      0.270320386     -0.409090906       484.315674      -1.49901211    
  0.327430397      0.377874792     -0.409090906       484.315674      -1.49901211    
  0.207707494      0.454816014     -0.327272713       622.166260      -1.49901223    
  0.327430397      0.377874792     -0.327272713       622.166260      -1.49901223    
  0.327430397      0.377874792     -0.409090906       622.166260      -1.49901223    
  0.207707494      0.454816014     -0.409090906       622.166260      -1.49901223    
   7.11574182E-02  0.494910687     -0.327272713       709.612000      -1.49901259    
  0.207707494      0.454816014     -0.327272713       709.612000      -1.49901259    
  0.207707494      0.454816014     -0.409090906       709.612000      -1.49901259    
   7.11574182E-02  0.494910687     -0.409090906       709.612000      -1.49901259    
  -7.11574182E-02  0.494910687     -0.327272713       739.569763      -1.49901187    
   7.11574182E-02  0.494910687     -0.327272713       739.569763      -1.49901187    
   7.11574182E-02  0.494910687     -0.409090906       739.569763      -1.49901187    
  -7.11574182E-02  0.494910687     -0.409090906       739.569763      -1.49901187    
 -0.207707494      0.454816014     -0.327272713       709.611938      -1.49901223    
  -7.11574182E-02  0.494910687     -0.327272713       709.611938      -1.49901223    
  -7.11574182E-02  0.494910687     -0.409090906       709.611938      -1.49901223    
 -0.207707494      0.454816014     -0.409090906       709.611938      -1.49901223    
 -0.327430397      0.377874792     -0.327272713       622.166077      -1.49901187    
 -0.207707494      0.454816014     -0.327272713       622.166077      -1.49901187    
 -0.207707494      0.454816014     -0.409090906       622.166077      -1.49901187    
 -0.327430397      0.377874792     -0.409090906       622.166077      -1.49901187    
 -0.420626789      0.270320386     -0.327272713       484.315674      -1.49901211    
 -0.327430397      0.377874792     -0.327272713       484.315674      -1.49901211    
 -0.327430397      0.377874792     -0.409090906       484.315674      -1.49901211    
 -0.420626789      0.270320386     -0.409090906       484.315674      -1.49901211    
 -0.479746491      0.140866295     -0.327272713       307.228485      -1.49901187    
 -0.420626789      0.270320386     -0.327272713       307.228485      -1.49901187    
 -0.420626789      0.270320386     -0.409090906       307.228485      -1.49901187    
 -0.479746491      0.140866295     -0.409090906       307.228485      -1.49901187    
 -0.500000000       2.84000009E-16 -0.327272713       105.251755      -1.49901366    
 -0.479746491      0.140866295     -0.327272713       105.251755      -1.49901366    
 -0.479746491      0.140866295     -0.409090906       105.251755      -1.49901366    
 -0.500000000       2.84000009E-16 -0.409090906       105.251755      -1.49901366    
  0.479746491      0.140866295     -0.409090906       103.595116      -1.49896133    
  0.500000000       0.00000000     -0.409090906       103.595116      -1.49896133    
  0.500000000       0.00000000     -0.490909100       103.595116      -1.49896133    
  0.479746491      0.140866295     -0.490909100       103.595116      -1.49896133    
  0.420626789      0.270320386     -0.409090906       302.392426      -1.49896407    
  0.479746491      0.140866295     -0.409090906       302.392426      -1.49896407    
  0.479746491      0.140866295     -0.490909100       302.392426      -1.49896407    
  0.420626789      0.270320386     -0.490909100       302.392426      -1.49896407    
  0.327430397      0.377874792     -0.409090906       476.690887      -1.49896395    
  0.420626789      0.270320386     -0.409090906       476.690887      -1.49896395    
  0.420626789      0.270320386     -0.490909100       476.690887      -1.49896395    
  0.327430397      0.377874792     -0.490909100       476.690887      -1.49896395    
  0.207707494      0.454816014     -0.409090906       612.371826      -1.49896395    
  0.327430397      0.377874792     -0.409090906       612.371826      -1.49896395    
  0.327430397      0.377874792     -0.490909100       612.371826      -1.49896395    
  0.207707494      0.454816014     -0.490909100       612.371826      -1.49896395    
   7.11574182E-02  0.494910687     -0.409090906       698.441956      -1.49896419    
  0.207707494      0.454816014     -0.409090906       698.441956      -1.49896419    
  0.207707494      0.454816014     -0.490909100       698.441956      -1.49896419    
   7.11574182E-02  0.494910687     -0.490909100       698.441956      -1.49896419    
  -7.11574182E-02  0.494910687     -0.409090906       727.928162      -1.49896300    
   7.11574182E-02  0.494910687     -0.409090906       727.928162      -1.49896300    
   7.11574182E-02  0.494910687     -0.490909100       727.928162      -1.49896300    
  -7.11574182E-02  0.494910687     -0.490909100       727.928162      -1.49896300    
 -0.207707494      0.454816014     -0.409090906       698.441650      -1.49896383    
  -7.11574182E-02  0.494910687     -0.409090906       698.441650      -1.49896383    
  -7.11574182E-02  0.494910687     -0.490909100       698.441650      -1.49896383    
 -0.207707494      0.454816014     -0.490909100       698.441650      -1.49896383    
 -0.327430397      0.377874792     -0.409090906       612.372009      -1.49896371    
 -0.207707494      0.454816014     -0.409090906       612.372009      -1.49896371    
 -0.207707494      0.454816014     -0.490909100       612.372009      -1.49896371    
 -0.327430397      0.377874792     -0.490909100       612.372009      -1.49896371    
 -0.420626789      0.270320386     -0.409090906       476.690918      -1.49896395    
 -0.327430397      0.377874792     -0.409090906       476.690918      -1.49896395    
 -0.327430397      0.377874792     -0.490909100       476.690918      -1.49896395    
 -0.420626789      0.270320386     -0.490909100       476.690918      -1.49896395    
 -0.479746491      0.140866295     -0.409090906       302.392639      -1.49896371    
 -0.420626789      0.270320386     -0.409090906       302.392639      -1.49896371    
 -0.420626789      0.270320386     -0.490909100       302.392639      -1.49896371    
 -0.479746491      0.140866295     -0.490909100       302.392639      -1.49896371    
 -0.500000000       2.84000009E-16 -0.409090906       103.595039      -1.49896038    
 -0.479746491      0.140866295     -0.409090906       103.595039      -1.49896038    
 -0.479746491      0.140866295     -0.490909100       103.595039      -1.49896038    
 -0.500000000       2.84000009E-16 -0.490909100       103.595039      -1.49896038    
  0.479746491      0.140866295     -0.490909100       101.617355      -1.49872959    
  0.500000000       0.00000000     -0.490909100       101.617355      -1.49872959    
  0.500000000       0.00000000     -0.572727323       101.617355      -1.49872959    
  0.479746491      0.140866295     -0.572727323       101.617355      -1.49872959    
  0.420626789      0.270320386     -0.490909100       296.619080      -1.49873257    
  0.479746491      0.140866295     -0.490909100       296.619080      -1.49873257    
  0.479746491      0.140866295     -0.572727323       296.619080      -1.49873257    
  0.420626789      0.270320386     -0.572727323       296.619080      -1.49873257    
  0.327430397      0.377874792     -0.490909100       467.590759      -1.49873328    
  0.420626789      0.270320386     -0.490909100       467.590759      -1.49873328    
  0.420626789      0.270320386     -0.572727323       467.590759      -1.49873328    
  0.327430397      0.377874792     -0.572727323       467.590759      -1.49873328    
  0.207707494      0.454816014     -0.490909100       600.680908      -1.49873233    
  0.327430397      0.377874792     -0.490909100       600.680908      -1.49873233    
  0.327430397      0.377874792     -0.572727323       600.680908      -1.49873233    
  0.207707494      0.454816014     -0.572727323       600.680908      -1.49873233    
   7.11574182E-02  0.494910687     -0.490909100       685.107910      -1.49873281    
  0.207707494      0.454816014     -0.490909100       685.107910      -1.49873281    
  0.207707494      0.454816014     -0.572727323       685.107910      -1.49873281    
   7.11574182E-02  0.494910687     -0.572727323       685.107910      -1.49873281    
  -7.11574182E-02  0.494910687     -0.490909100       714.030396      -1.49873281    
   7.11574182E-02  0.494910687     -0.490909100       714.030396      -1.49873281    
   7.11574182E-02  0.494910687     -0.572727323       714.030396      -1.49873281    
  -7.11574182E-02  0.494910687     -0.572727323       714.030396      -1.49873281    
 -0.207707494      0.454816014     -0.490909100       685.107666      -1.49873269    
  -7.11574182E-02  0.494910687     -0.490909100       685.107666      -1.49873269    
  -7.11574182E-02  0.494910687     -0.572727323       685.107666      -1.49873269    
 -0.207707494      0.454816014     -0.572727323       685.107666      -1.49873269    
 -0.327430397      0.377874792     -0.490909100       600.680908      -1.49873257    
 -0.207707494      0.454816014     -0.490909100       600.680908      -1.49873257    
 -0.207707494      0.454816014     -0.572727323       600.680908      -1.49873257    
 -0.327430397      0.377874792     -0.572727323       600.680908      -1.49873257    
 -0.420626789      0.270320386     -0.490909100       467.590851      -1.49873388    
 -0.327430397      0.377874792     -0.490909100       467.590851      -1.49873388    
 -0.327430397      0.377874792     -0.572727323       467.590851      -1.49873388    
 -0.420626789      0.270320386     -0.572727323       467.590851      -1.49873388    
 -0.479746491      0.140866295     -0.490909100       296.618927      -1.49873281    
 -0.420626789      0.270320386     -0.490909100       296.618927      -1.49873281    
 -0.420626789      0.270320386     -0.572727323       296.618927      -1.49873281    
 -0.479746491      0.140866295     -0.572727323       296.618927      -1.49873281    
 -0.500000000       2.84000009E-16 -0.490909100       101.617233      -1.49872863    
 -0.479746491      0.140866295     -0.490909100       101.617233      -1.49872863    
 -0.479746491      0.140866295     -0.572727323       101.617233      -1.49872863    
 -0.500000000       2.84000009E-16 -0.572727323       101.617233      -1.49872863    
  0.479746491      0.140866295     -0.572727323       99.1172714      -1.49823010    
  0.500000000       0.00000000     -0.572727323       99.1172714      -1.49823010    
  0.500000000       0.00000000     -0.654545426       99.1172714      -1.49823010    
  0.479746491      0.140866295     -0.654545426       99.1172714      -1.49823010    
  0.420626789      0.270320386     -0.572727323       289.321503      -1.49822748    
  0.479746491      0.140866295     -0.572727323       289.321503      -1.49822748    
  0.479746491      0.140866295     -0.654545426       289.321503      -1.49822748    
  0.420626789      0.270320386     -0.654545426       289.321503      -1.49822748    
  0.327430397      0.377874792     -0.572727323       456.086975      -1.49822795    
  0.420626789      0.270320386     -0.572727323       456.086975      -1.49822795    
  0.420626789      0.270320386     -0.654545426       456.086975      -1.49822795    
  0.327430397      0.377874792     -0.654545426       456.086975      -1.49822795    
  0.207707494      0.454816014     -0.572727323       585.902466      -1.49822712    
  0.327430397      0.377874792     -0.572727323       585.902466      -1.49822712    
  0.327430397      0.377874792     -0.654545426       585.902466      -1.49822712    
  0.207707494      0.454816014     -0.654545426       585.902466      -1.49822712    
   7.11574182E-02  0.494910687     -0.572727323       668.252136      -1.49822772    
  0.207707494      0.454816014     -0.572727323       668.252136      -1.49822772    
  0.207707494      0.454816014     -0.654545426       668.252136      -1.49822772    
   7.11574182E-02  0.494910687     -0.654545426       668.252136      -1.49822772    
  -7.11574182E-02  0.494910687     -0.572727323       696.463989      -1.49822855    
   7.11574182E-02  0.494910687     -0.572727323       696.463989      -1.49822855    
   7.11574182E-02  0.494910687     -0.654545426       696.463989      -1.49822855    
  -7.11574182E-02  0.494910687     -0.654545426       696.463989      -1.49822855    
 -0.207707494      0.454816014     -0.572727323       668.252380      -1.49822795    
  -7.11574182E-02  0.494910687     -0.572727323       668.252380      -1.49822795    
  -7.11574182E-02  0.494910687     -0.654545426       668.252380      -1.49822795    
 -0.207707494      0.454816014     -0.654545426       668.252380      -1.49822795    
 -0.327430397      0.377874792     -0.572727323       585.902283      -1.49822712    
 -0.207707494      0.454816014     -0.572727323       585.902283      -1.49822712    
 -0.207707494      0.454816014     -0.654545426       585.902283      -1.49822712    
 -0.327430397      0.377874792     -0.654545426       585.902283      -1.49822712    
 -0.420626789      0.270320386     -0.572727323       456.086975      -1.49822807    
 -0.327430397      0.377874792     -0.572727323       456.086975      -1.49822807    
 -0.327430397      0.377874792     -0.654545426       456.086975      -1.49822807    
 -0.420626789      0.270320386     -0.654545426       456.086975      -1.49822807    
 -0.479746491      0.140866295     -0.572727323       289.321289      -1.49822724    
 -0.420626789      0.270320386     -0.572727323       289.321289      -1.49822724    
 -0.420626789      0.270320386     -0.654545426       289.321289      -1.49822724    