 VARIABLES="X" "Y" "Z" "abs(p) (Pa)" "angle(p) (rad)"
ZONE N=   8448,E =    8022, F=FEPOINT, ET=QUADRILATERAL
  0.499932408       8.22369382E-03   0.00000000       1664.71375       2.07042456    
  0.500000000       0.00000000       0.00000000       1664.71375       2.07042456    
  0.500000000       0.00000000      -8.18181783E-02   1664.71375       2.07042456    
  0.499932408       8.22369382E-03  -8.18181783E-02   1664.71375       2.07042456    
  0.499729514       1.64451599E-02   0.00000000       1683.59534       2.06813598    
  0.499932408       8.22369382E-03   0.00000000       1683.59534       2.06813598    
  0.499932408       8.22369382E-03  -8.18181783E-02   1683.59534       2.06813598    
  0.499729514       1.64451599E-02  -8.18181783E-02   1683.59534       2.06813598    
  0.499391407       2.46621799E-02   0.00000000       1701.92834       2.06599069    
  0.499729514       1.64451599E-02   0.00000000       1701.92834       2.06599069    
  0.499729514       1.64451599E-02  -8.18181783E-02   1701.92834       2.06599069    
  0.499391407       2.46621799E-02  -8.18181783E-02   1701.92834       2.06599069    
  0.498918205       3.28725316E-02   0.00000000       1719.71143       2.06397271    
  0.499391407       2.46621799E-02   0.00000000       1719.71143       2.06397271    
  0.499391407       2.46621799E-02  -8.18181783E-02   1719.71143       2.06397271    
  0.498918205       3.28725316E-02  -8.18181783E-02   1719.71143       2.06397271    
  0.498310089       4.10739891E-02   0.00000000       1736.94580       2.06207800    
  0.498918205       3.28725316E-02   0.00000000       1736.94580       2.06207800    
  0.498918205       3.28725316E-02  -8.18181783E-02   1736.94580       2.06207800    
  0.498310089       4.10739891E-02  -8.18181783E-02   1736.94580       2.06207800    
  0.497567087       4.92643304E-02   0.00000000       1753.60986       2.06030178    
  0.498310089       4.10739891E-02   0.00000000       1753.60986       2.06030178    
  0.498310089       4.10739891E-02  -8.18181783E-02   1753.60986       2.06030178    
  0.497567087       4.92643304E-02  -8.18181783E-02   1753.60986       2.06030178    
  0.496689498       5.74413389E-02   0.00000000       1769.70813       2.05863619    
  0.497567087       4.92643304E-02   0.00000000       1769.70813       2.05863619    
  0.497567087       4.92643304E-02  -8.18181783E-02   1769.70813       2.05863619    
  0.496689498       5.74413389E-02  -8.18181783E-02   1769.70813       2.05863619    
  0.495677590       6.56028166E-02   0.00000000       1785.22925       2.05707812    
  0.496689498       5.74413389E-02   0.00000000       1785.22925       2.05707812    
  0.496689498       5.74413389E-02  -8.18181783E-02   1785.22925       2.05707812    
  0.495677590       6.56028166E-02  -8.18181783E-02   1785.22925       2.05707812    
  0.494531512       7.37465471E-02   0.00000000       1800.16907       2.05561519    
  0.495677590       6.56028166E-02   0.00000000       1800.16907       2.05561519    
  0.495677590       6.56028166E-02  -8.18181783E-02   1800.16907       2.05561519    
  0.494531512       7.37465471E-02  -8.18181783E-02   1800.16907       2.05561519    
  0.493251711       8.18703175E-02   0.00000000       1814.51904       2.05424690    
  0.494531512       7.37465471E-02   0.00000000       1814.51904       2.05424690    
  0.494531512       7.37465471E-02  -8.18181783E-02   1814.51904       2.05424690    
  0.493251711       8.18703175E-02  -8.18181783E-02   1814.51904       2.05424690    
  0.491838396       8.99719521E-02   0.00000000       1828.27771       2.05296731    
  0.493251711       8.18703175E-02   0.00000000       1828.27771       2.05296731    
  0.493251711       8.18703175E-02  -8.18181783E-02   1828.27771       2.05296731    
  0.491838396       8.99719521E-02  -8.18181783E-02   1828.27771       2.05296731    
  0.490292102       9.80492383E-02   0.00000000       1841.44470       2.05177331    
  0.491838396       8.99719521E-02   0.00000000       1841.44470       2.05177331    
  0.491838396       8.99719521E-02  -8.18181783E-02   1841.44470       2.05177331    
  0.490292102       9.80492383E-02  -8.18181783E-02   1841.44470       2.05177331    
  0.488613099      0.106100000       0.00000000       1854.00378       2.05066204    
  0.490292102       9.80492383E-02   0.00000000       1854.00378       2.05066204    
  0.490292102       9.80492383E-02  -8.18181783E-02   1854.00378       2.05066204    
  0.488613099      0.106100000      -8.18181783E-02   1854.00378       2.05066204    
  0.486802012      0.114122100       0.00000000       1865.96216       2.04962420    
  0.488613099      0.106100000       0.00000000       1865.96216       2.04962420    
  0.488613099      0.106100000      -8.18181783E-02   1865.96216       2.04962420    
  0.486802012      0.114122100      -8.18181783E-02   1865.96216       2.04962420    
  0.484859109      0.122113198       0.00000000       1877.30310       2.04866409    
  0.486802012      0.114122100       0.00000000       1877.30310       2.04866409    
  0.486802012      0.114122100      -8.18181783E-02   1877.30310       2.04866409    
  0.484859109      0.122113198      -8.18181783E-02   1877.30310       2.04866409    
  0.482785106      0.130071402       0.00000000       1888.03516       2.04777145    
  0.484859109      0.122113198       0.00000000       1888.03516       2.04777145    
  0.484859109      0.122113198      -8.18181783E-02   1888.03516       2.04777145    
  0.482785106      0.130071402      -8.18181783E-02   1888.03516       2.04777145    
  0.480580389      0.137994304       0.00000000       1898.14258       2.04694843    
  0.482785106      0.130071402       0.00000000       1898.14258       2.04694843    
  0.482785106      0.130071402      -8.18181783E-02   1898.14258       2.04694843    
  0.480580389      0.137994304      -8.18181783E-02   1898.14258       2.04694843    
  0.478245795      0.145879999       0.00000000       1907.63208       2.04618716    
  0.480580389      0.137994304       0.00000000       1907.63208       2.04618716    
  0.480580389      0.137994304      -8.18181783E-02   1907.63208       2.04618716    
  0.478245795      0.145879999      -8.18181783E-02   1907.63208       2.04618716    
  0.475781709      0.153726101       0.00000000       1916.49622       2.04548883    
  0.478245795      0.145879999       0.00000000       1916.49622       2.04548883    
  0.478245795      0.145879999      -8.18181783E-02   1916.49622       2.04548883    
  0.475781709      0.153726101      -8.18181783E-02   1916.49622       2.04548883    
  0.473188996      0.161530703       0.00000000       1924.73425       2.04485035    
  0.475781709      0.153726101       0.00000000       1924.73425       2.04485035    
  0.475781709      0.153726101      -8.18181783E-02   1924.73425       2.04485035    
  0.473188996      0.161530703      -8.18181783E-02   1924.73425       2.04485035    
  0.470468193      0.169291601       0.00000000       1932.33545       2.04427052    
  0.473188996      0.161530703       0.00000000       1932.33545       2.04427052    
  0.473188996      0.161530703      -8.18181783E-02   1932.33545       2.04427052    
  0.470468193      0.169291601      -8.18181783E-02   1932.33545       2.04427052    
  0.467620194      0.177006602       0.00000000       1939.31177       2.04374361    
  0.470468193      0.169291601       0.00000000       1939.31177       2.04374361    
  0.470468193      0.169291601      -8.18181783E-02   1939.31177       2.04374361    
  0.467620194      0.177006602      -8.18181783E-02   1939.31177       2.04374361    
  0.464645714      0.184673801       0.00000000       1945.64294       2.04326987    
  0.467620194      0.177006602       0.00000000       1945.64294       2.04326987    
  0.467620194      0.177006602      -8.18181783E-02   1945.64294       2.04326987    
  0.464645714      0.184673801      -8.18181783E-02   1945.64294       2.04326987    
  0.461545408      0.192291096       0.00000000       1951.33984       2.04285073    
  0.464645714      0.184673801       0.00000000       1951.33984       2.04285073    
  0.464645714      0.184673801      -8.18181783E-02   1951.33984       2.04285073    
  0.461545408      0.192291096      -8.18181783E-02   1951.33984       2.04285073    
  0.458320290      0.199856296       0.00000000       1956.39673       2.04248285    
  0.461545408      0.192291096       0.00000000       1956.39673       2.04248285    
  0.461545408      0.192291096      -8.18181783E-02   1956.39673       2.04248285    
  0.458320290      0.199856296      -8.18181783E-02   1956.39673       2.04248285    
  0.454971194      0.207367405       0.00000000       1960.80713       2.04216480    
  0.458320290      0.199856296       0.00000000       1960.80713       2.04216480    
  0.458320290      0.199856296      -8.18181783E-02   1960.80713       2.04216480    
  0.454971194      0.207367405      -8.18181783E-02   1960.80713       2.04216480    
  0.451498985      0.214822397       0.00000000       1964.57947       2.04189181    
  0.454971194      0.207367405       0.00000000       1964.57947       2.04189181    
  0.454971194      0.207367405      -8.18181783E-02   1964.57947       2.04189181    
  0.451498985      0.214822397      -8.18181783E-02   1964.57947       2.04189181    
  0.447904587      0.222219393       0.00000000       1967.71106       2.04166818    
  0.451498985      0.214822397       0.00000000       1967.71106       2.04166818    
  0.451498985      0.214822397      -8.18181783E-02   1967.71106       2.04166818    
  0.447904587      0.222219393      -8.18181783E-02   1967.71106       2.04166818    
  0.444189101      0.229556203       0.00000000       1970.18921       2.04149389    
  0.447904587      0.222219393       0.00000000       1970.18921       2.04149389    
  0.447904587      0.222219393      -8.18181783E-02   1970.18921       2.04149389    
  0.444189101      0.229556203      -8.18181783E-02   1970.18921       2.04149389    
  0.440353394      0.236830905       0.00000000       1972.01892       2.04136586    
  0.444189101      0.229556203       0.00000000       1972.01892       2.04136586    
  0.444189101      0.229556203      -8.18181783E-02   1972.01892       2.04136586    
  0.440353394      0.236830905      -8.18181783E-02   1972.01892       2.04136586    
  0.436398596      0.244041502       0.00000000       1973.20984       2.04127812    
  0.440353394      0.236830905       0.00000000       1973.20984       2.04127812    
  0.440353394      0.236830905      -8.18181783E-02   1973.20984       2.04127812    
  0.436398596      0.244041502      -8.18181783E-02   1973.20984       2.04127812    
  0.432325810      0.251186103       0.00000000       1973.74670       2.04124308    
  0.436398596      0.244041502       0.00000000       1973.74670       2.04124308    
  0.436398596      0.244041502      -8.18181783E-02   1973.74670       2.04124308    
  0.432325810      0.251186103      -8.18181783E-02   1973.74670       2.04124308    
  0.428135902      0.258262813       0.00000000       1973.64233       2.04124999    
  0.432325810      0.251186103       0.00000000       1973.64233       2.04124999    
  0.432325810      0.251186103      -8.18181783E-02   1973.64233       2.04124999    
  0.428135902      0.258262813      -8.18181783E-02   1973.64233       2.04124999    
  0.423830211      0.265269488       0.00000000       1972.88257       2.04130220    
  0.428135902      0.258262813       0.00000000       1972.88257       2.04130220    
  0.428135902      0.258262813      -8.18181783E-02   1972.88257       2.04130220    
  0.423830211      0.265269488      -8.18181783E-02   1972.88257       2.04130220    
  0.419409901      0.272204489       0.00000000       1971.48547       2.04140210    
  0.423830211      0.265269488       0.00000000       1971.48547       2.04140210    
  0.423830211      0.265269488      -8.18181783E-02   1971.48547       2.04140210    
  0.419409901      0.272204489      -8.18181783E-02   1971.48547       2.04140210    
  0.414876103      0.279065907       0.00000000       1969.43494       2.04154658    
  0.419409901      0.272204489       0.00000000       1969.43494       2.04154658    
  0.419409901      0.272204489      -8.18181783E-02   1969.43494       2.04154658    
  0.414876103      0.279065907      -8.18181783E-02   1969.43494       2.04154658    
  0.410230100      0.285851806       0.00000000       1966.73438       2.04174137    
  0.414876103      0.279065907       0.00000000       1966.73438       2.04174137    
  0.414876103      0.279065907      -8.18181783E-02   1966.73438       2.04174137    
  0.410230100      0.285851806      -8.18181783E-02   1966.73438       2.04174137    
  0.405473113      0.292560399       0.00000000       1963.39465       2.04197931    
  0.410230100      0.285851806       0.00000000       1963.39465       2.04197931    
  0.410230100      0.285851806      -8.18181783E-02   1963.39465       2.04197931    
  0.405473113      0.292560399      -8.18181783E-02   1963.39465       2.04197931    
  0.400606394      0.299189687       0.00000000       1959.40356       2.04226661    
  0.405473113      0.292560399       0.00000000       1959.40356       2.04226661    
  0.405473113      0.292560399      -8.18181783E-02   1959.40356       2.04226661    
  0.400606394      0.299189687      -8.18181783E-02   1959.40356       2.04226661    
  0.395631313      0.305738211       0.00000000       1954.77832       2.04259896    
  0.400606394      0.299189687       0.00000000       1954.77832       2.04259896    
  0.400606394      0.299189687      -8.18181783E-02   1954.77832       2.04259896    
  0.395631313      0.305738211      -8.18181783E-02   1954.77832       2.04259896    
  0.390549213      0.312204003       0.00000000       1949.50769       2.04298639    
  0.395631313      0.305738211       0.00000000       1949.50769       2.04298639    
  0.395631313      0.305738211      -8.18181783E-02   1949.50769       2.04298639    
  0.390549213      0.312204003      -8.18181783E-02   1949.50769       2.04298639    
  0.385361403      0.318585187       0.00000000       1943.60413       2.04342318    
  0.390549213      0.312204003       0.00000000       1943.60413       2.04342318    
  0.390549213      0.312204003      -8.18181783E-02   1943.60413       2.04342318    
  0.385361403      0.318585187      -8.18181783E-02   1943.60413       2.04342318    
  0.380069405      0.324880302       0.00000000       1937.05579       2.04391193    
  0.385361403      0.318585187       0.00000000       1937.05579       2.04391193    
  0.385361403      0.318585187      -8.18181783E-02   1937.05579       2.04391193    
  0.380069405      0.324880302      -8.18181783E-02   1937.05579       2.04391193    
  0.374674588      0.331087500       0.00000000       1929.87573       2.04445624    
  0.380069405      0.324880302       0.00000000       1929.87573       2.04445624    
  0.380069405      0.324880302      -8.18181783E-02   1929.87573       2.04445624    
  0.374674588      0.331087500      -8.18181783E-02   1929.87573       2.04445624    
  0.369178414      0.337205201       0.00000000       1922.05261       2.04505825    
  0.374674588      0.331087500       0.00000000       1922.05261       2.04505825    
  0.374674588      0.331087500      -8.18181783E-02   1922.05261       2.04505825    
  0.369178414      0.337205201      -8.18181783E-02   1922.05261       2.04505825    
  0.363582313      0.343231589       0.00000000       1913.61292       2.04571366    
  0.369178414      0.337205201       0.00000000       1913.61292       2.04571366    
  0.369178414      0.337205201      -8.18181783E-02   1913.61292       2.04571366    
  0.363582313      0.343231589      -8.18181783E-02   1913.61292       2.04571366    
  0.357887805      0.349165112       0.00000000       1904.53577       2.04643416    
  0.363582313      0.343231589       0.00000000       1904.53577       2.04643416    
  0.363582313      0.343231589      -8.18181783E-02   1904.53577       2.04643416    
  0.357887805      0.349165112      -8.18181783E-02   1904.53577       2.04643416    
  0.352096587      0.355004191       0.00000000       1894.83716       2.04721689    
  0.357887805      0.349165112       0.00000000       1894.83716       2.04721689    
  0.357887805      0.349165112      -8.18181783E-02   1894.83716       2.04721689    
  0.352096587      0.355004191      -8.18181783E-02   1894.83716       2.04721689    
  0.346210092      0.360747308       0.00000000       1884.52148       2.04806113    
  0.352096587      0.355004191       0.00000000       1884.52148       2.04806113    
  0.352096587      0.355004191      -8.18181783E-02   1884.52148       2.04806113    
  0.346210092      0.360747308      -8.18181783E-02   1884.52148       2.04806113    
  0.340229899      0.366392702       0.00000000       1873.58643       2.04897928    
  0.346210092      0.360747308       0.00000000       1873.58643       2.04897928    
  0.346210092      0.360747308      -8.18181783E-02   1873.58643       2.04897928    
  0.340229899      0.366392702      -8.18181783E-02   1873.58643       2.04897928    
  0.334157586      0.371939093       0.00000000       1862.03955       2.04996276    
  0.340229899      0.366392702       0.00000000       1862.03955       2.04996276    
  0.340229899      0.366392702      -8.18181783E-02   1862.03955       2.04996276    
  0.334157586      0.371939093      -8.18181783E-02   1862.03955       2.04996276    
  0.327995002      0.377384812       0.00000000       1849.88379       2.05102444    
  0.334157586      0.371939093       0.00000000       1849.88379       2.05102444    
  0.334157586      0.371939093      -8.18181783E-02   1849.88379       2.05102444    
  0.327995002      0.377384812      -8.18181783E-02   1849.88379       2.05102444    
  0.321743697      0.382728398       0.00000000       1837.11572       2.05216599    
  0.327995002      0.377384812       0.00000000       1837.11572       2.05216599    
  0.327995002      0.377384812      -8.18181783E-02   1837.11572       2.05216599    
  0.321743697      0.382728398      -8.18181783E-02   1837.11572       2.05216599    
  0.315405309      0.387968510       0.00000000       1823.76221       2.05338502    
  0.321743697      0.382728398       0.00000000       1823.76221       2.05338502    
  0.321743697      0.382728398      -8.18181783E-02   1823.76221       2.05338502    
  0.315405309      0.387968510      -8.18181783E-02   1823.76221       2.05338502    
  0.308981508      0.393103600       0.00000000       1809.79346       2.05469275    
  0.315405309      0.387968510       0.00000000       1809.79346       2.05469275    
  0.315405309      0.387968510      -8.18181783E-02   1809.79346       2.05469275    
  0.308981508      0.393103600      -8.18181783E-02   1809.79346       2.05469275    
  0.302474201      0.398132294       0.00000000       1795.25452       2.05609059    
  0.308981508      0.393103600       0.00000000       1795.25452       2.05609059    
  0.308981508      0.393103600      -8.18181783E-02   1795.25452       2.05609059    
  0.302474201      0.398132294      -8.18181783E-02   1795.25452       2.05609059    
  0.295885086      0.403053403       0.00000000       1780.12134       2.05758452    
  0.302474201      0.398132294       0.00000000       1780.12134       2.05758452    
  0.302474201      0.398132294      -8.18181783E-02   1780.12134       2.05758452    
  0.295885086      0.403053403      -8.18181783E-02   1780.12134       2.05758452    
  0.289215893      0.407865405       0.00000000       1764.40588       2.05917931    
  0.295885086      0.403053403       0.00000000       1764.40588       2.05917931    
  0.295885086      0.403053403      -8.18181783E-02   1764.40588       2.05917931    
  0.289215893      0.407865405      -8.18181783E-02   1764.40588       2.05917931    
  0.282468408      0.412567109       0.00000000       1748.12073       2.06088257    
  0.289215893      0.407865405       0.00000000       1748.12073       2.06088257    
  0.289215893      0.407865405      -8.18181783E-02   1748.12073       2.06088257    
  0.282468408      0.412567109      -8.18181783E-02   1748.12073       2.06088257    
  0.275644600      0.417157114       0.00000000       1731.26624       2.06269526    
  0.282468408      0.412567109       0.00000000       1731.26624       2.06269526    
  0.282468408      0.412567109      -8.18181783E-02   1731.26624       2.06269526    
  0.275644600      0.417157114      -8.18181783E-02   1731.26624       2.06269526    
  0.268746108      0.421634287       0.00000000       1713.84644       2.06462908    
  0.275644600      0.417157114       0.00000000       1713.84644       2.06462908    
  0.275644600      0.417157114      -8.18181783E-02   1713.84644       2.06462908    
  0.268746108      0.421634287      -8.18181783E-02   1713.84644       2.06462908    
  0.261774987      0.425997496       0.00000000       1695.87952       2.06668925    
  0.268746108      0.421634287       0.00000000       1695.87952       2.06668925    
  0.268746108      0.421634287      -8.18181783E-02   1695.87952       2.06668925    
  0.261774987      0.425997496      -8.18181783E-02   1695.87952       2.06668925    
  0.254733086      0.430245399       0.00000000       1677.35693       2.06888533    
  0.261774987      0.425997496       0.00000000       1677.35693       2.06888533    
  0.261774987      0.425997496      -8.18181783E-02   1677.35693       2.06888533    
  0.254733086      0.430245399      -8.18181783E-02   1677.35693       2.06888533    
  0.247622207      0.434376895       0.00000000       1658.30029       2.07122016    
  0.254733086      0.430245399       0.00000000       1658.30029       2.07122016    
  0.254733086      0.430245399      -8.18181783E-02   1658.30029       2.07122016    
  0.247622207      0.434376895      -8.18181783E-02   1658.30029       2.07122016    
  0.240444303      0.438390911       0.00000000       1638.70935       2.07370710    
  0.247622207      0.434376895       0.00000000       1638.70935       2.07370710    
  0.247622207      0.434376895      -8.18181783E-02   1638.70935       2.07370710    
  0.240444303      0.438390911      -8.18181783E-02   1638.70935       2.07370710    
  0.233201399      0.442286193       0.00000000       1618.59106       2.07635450    
  0.240444303      0.438390911       0.00000000       1618.59106       2.07635450    
  0.240444303      0.438390911      -8.18181783E-02   1618.59106       2.07635450    
  0.233201399      0.442286193      -8.18181783E-02   1618.59106       2.07635450    
  0.225895405      0.446061909       0.00000000       1597.96387       2.07917094    
  0.233201399      0.442286193       0.00000000       1597.96387       2.07917094    
  0.233201399      0.442286193      -8.18181783E-02   1597.96387       2.07917094    
  0.225895405      0.446061909      -8.18181783E-02   1597.96387       2.07917094    
  0.218528301      0.449716985       0.00000000       1576.82227       2.08217096    
  0.225895405      0.446061909       0.00000000       1576.82227       2.08217096    
  0.225895405      0.446061909      -8.18181783E-02   1576.82227       2.08217096    
  0.218528301      0.449716985      -8.18181783E-02   1576.82227       2.08217096    
  0.211102098      0.453250408       0.00000000       1555.18372       2.08536863    
  0.218528301      0.449716985       0.00000000       1555.18372       2.08536863    
  0.218528301      0.449716985      -8.18181783E-02   1555.18372       2.08536863    
  0.211102098      0.453250408      -8.18181783E-02   1555.18372       2.08536863    
  0.203618705      0.456661195       0.00000000       1533.05640       2.08876729    
  0.211102098      0.453250408       0.00000000       1533.05640       2.08876729    
  0.211102098      0.453250408      -8.18181783E-02   1533.05640       2.08876729    
  0.203618705      0.456661195      -8.18181783E-02   1533.05640       2.08876729    
  0.196080297      0.459948391       0.00000000       1510.45422       2.09238768    
  0.203618705      0.456661195       0.00000000       1510.45422       2.09238768    
  0.203618705      0.456661195      -8.18181783E-02   1510.45422       2.09238768    
  0.196080297      0.459948391      -8.18181783E-02   1510.45422       2.09238768    
  0.188488796      0.463111192       0.00000000       1487.37756       2.09624577    
  0.196080297      0.459948391       0.00000000       1487.37756       2.09624577    
  0.196080297      0.459948391      -8.18181783E-02   1487.37756       2.09624577    
  0.188488796      0.463111192      -8.18181783E-02   1487.37756       2.09624577    
  0.180846393      0.466148704       0.00000000       1463.84705       2.10035396    
  0.188488796      0.463111192       0.00000000       1463.84705       2.10035396    
  0.188488796      0.463111192      -8.18181783E-02   1463.84705       2.10035396    
  0.180846393      0.466148704      -8.18181783E-02   1463.84705       2.10035396    
  0.173154995      0.469060093       0.00000000       1439.86401       2.10473585    
  0.180846393      0.466148704       0.00000000       1439.86401       2.10473585    
  0.180846393      0.466148704      -8.18181783E-02   1439.86401       2.10473585    
  0.173154995      0.469060093      -8.18181783E-02   1439.86401       2.10473585    
  0.165416703      0.471844614       0.00000000       1415.45557       2.10940361    
  0.173154995      0.469060093       0.00000000       1415.45557       2.10940361    
  0.173154995      0.469060093      -8.18181783E-02   1415.45557       2.10940361    
  0.165416703      0.471844614      -8.18181783E-02   1415.45557       2.10940361    
  0.157633796      0.474501401       0.00000000       1390.62097       2.11438346    
  0.165416703      0.471844614       0.00000000       1390.62097       2.11438346    
  0.165416703      0.471844614      -8.18181783E-02   1390.62097       2.11438346    
  0.157633796      0.474501401      -8.18181783E-02   1390.62097       2.11438346    
  0.149808094      0.477029890       0.00000000       1365.37830       2.11969805    
  0.157633796      0.474501401       0.00000000       1365.37830       2.11969805    
  0.157633796      0.474501401      -8.18181783E-02   1365.37830       2.11969805    
  0.149808094      0.477029890      -8.18181783E-02   1365.37830       2.11969805    
  0.141941994      0.479429305       0.00000000       1339.74487       2.12537169    
  0.149808094      0.477029890       0.00000000       1339.74487       2.12537169    
  0.149808094      0.477029890      -8.18181783E-02   1339.74487       2.12537169    
  0.141941994      0.479429305      -8.18181783E-02   1339.74487       2.12537169    
  0.134037405      0.481698990       0.00000000       1313.72546       2.13143897    
  0.141941994      0.479429305       0.00000000       1313.72546       2.13143897    
  0.141941994      0.479429305      -8.18181783E-02   1313.72546       2.13143897    
  0.134037405      0.481698990      -8.18181783E-02   1313.72546       2.13143897    
  0.126096606      0.483838499       0.00000000       1287.34949       2.13791609    
  0.134037405      0.481698990       0.00000000       1287.34949       2.13791609    
  0.134037405      0.481698990      -8.18181783E-02   1287.34949       2.13791609    
  0.126096606      0.483838499      -8.18181783E-02   1287.34949       2.13791609    
  0.118121602      0.485846996       0.00000000       1260.62183       2.14484692    
  0.126096606      0.483838499       0.00000000       1260.62183       2.14484692    
  0.126096606      0.483838499      -8.18181783E-02   1260.62183       2.14484692    
  0.118121602      0.485846996      -8.18181783E-02   1260.62183       2.14484692    
  0.110114798      0.487724006       0.00000000       1233.56641       2.15226841    
  0.118121602      0.485846996       0.00000000       1233.56641       2.15226841    
  0.118121602      0.485846996      -8.18181783E-02   1233.56641       2.15226841    
  0.110114798      0.487724006      -8.18181783E-02   1233.56641       2.15226841    
  0.102078103      0.489469200       0.00000000       1206.19812       2.16021347    
  0.110114798      0.487724006       0.00000000       1206.19812       2.16021347    
  0.110114798      0.487724006      -8.18181783E-02   1206.19812       2.16021347    
  0.102078103      0.489469200      -8.18181783E-02   1206.19812       2.16021347    
   9.40137729E-02  0.491081893       0.00000000       1178.54224       2.16873384    
  0.102078103      0.489469200       0.00000000       1178.54224       2.16873384    
  0.102078103      0.489469200      -8.18181783E-02   1178.54224       2.16873384    
   9.40137729E-02  0.491081893      -8.18181783E-02   1178.54224       2.16873384    
   8.59240368E-02  0.492561698       0.00000000       1150.61731       2.17787528    
   9.40137729E-02  0.491081893       0.00000000       1150.61731       2.17787528    
   9.40137729E-02  0.491081893      -8.18181783E-02   1150.61731       2.17787528    
   8.59240368E-02  0.492561698      -8.18181783E-02   1150.61731       2.17787528    
   7.78110623E-02  0.493908286       0.00000000       1122.44543       2.18769097    
   8.59240368E-02  0.492561698       0.00000000       1122.44543       2.18769097    
   8.59240368E-02  0.492561698      -8.18181783E-02   1122.44543       2.18769097    
   7.78110623E-02  0.493908286      -8.18181783E-02   1122.44543       2.18769097    
   6.96770400E-02  0.495121300       0.00000000       1094.05127       2.19824839    
   7.78110623E-02  0.493908286       0.00000000       1094.05127       2.19824839    
   7.78110623E-02  0.493908286      -8.18181783E-02   1094.05127       2.19824839    