 VARIABLES="X" "Y" "Z" "abs(p) (Pa)" "angle(p) (rad)"
ZONE N=    528,E =     462, F=FEPOINT, ET=QUADRILATERAL
  0.479746491      0.140866295       0.00000000       7.50968320E-06  0.856004417    
  0.500000000       0.00000000       0.00000000       7.50968320E-06  0.856004417    
  0.500000000       0.00000000      -8.18181783E-02   7.50968320E-06  0.856004417    
  0.479746491      0.140866295      -8.18181783E-02   7.50968320E-06  0.856004417    
  0.420626789      0.270320386       0.00000000       1.56259539E-05 -0.674318492    
  0.479746491      0.140866295       0.00000000       1.56259539E-05 -0.674318492    
  0.479746491      0.140866295      -8.18181783E-02   1.56259539E-05 -0.674318492    
  0.420626789      0.270320386      -8.18181783E-02   1.56259539E-05 -0.674318492    
  0.327430397      0.377874792       0.00000000       3.38638565E-05   1.15503204    
  0.420626789      0.270320386       0.00000000       3.38638565E-05   1.15503204    
  0.420626789      0.270320386      -8.18181783E-02   3.38638565E-05   1.15503204    
  0.327430397      0.377874792      -8.18181783E-02   3.38638565E-05   1.15503204    
  0.207707494      0.454816014       0.00000000       1.69856721E-05 -0.946741581    
  0.327430397      0.377874792       0.00000000       1.69856721E-05 -0.946741581    
  0.327430397      0.377874792      -8.18181783E-02   1.69856721E-05 -0.946741581    
  0.207707494      0.454816014      -8.18181783E-02   1.69856721E-05 -0.946741581    
   7.11574182E-02  0.494910687       0.00000000       2.29003490E-05   1.39542377    
  0.207707494      0.454816014       0.00000000       2.29003490E-05   1.39542377    
  0.207707494      0.454816014      -8.18181783E-02   2.29003490E-05   1.39542377    
   7.11574182E-02  0.494910687      -8.18181783E-02   2.29003490E-05   1.39542377    
  -7.11574182E-02  0.494910687       0.00000000       1.50503126E-06   2.85463786    
   7.11574182E-02  0.494910687       0.00000000       1.50503126E-06   2.85463786    
   7.11574182E-02  0.494910687      -8.18181783E-02   1.50503126E-06   2.85463786    
  -7.11574182E-02  0.494910687      -8.18181783E-02   1.50503126E-06   2.85463786    
 -0.207707494      0.454816014       0.00000000       2.17396555E-05  -1.82420778    
  -7.11574182E-02  0.494910687       0.00000000       2.17396555E-05  -1.82420778    
  -7.11574182E-02  0.494910687      -8.18181783E-02   2.17396555E-05  -1.82420778    
 -0.207707494      0.454816014      -8.18181783E-02   2.17396555E-05  -1.82420778    
 -0.327430397      0.377874792       0.00000000       1.80010047E-05   2.02992058    
 -0.207707494      0.454816014       0.00000000       1.80010047E-05   2.02992058    
 -0.207707494      0.454816014      -8.18181783E-02   1.80010047E-05   2.02992058    
 -0.327430397      0.377874792      -8.18181783E-02   1.80010047E-05   2.02992058    
 -0.420626789      0.270320386       0.00000000       3.06436632E-05  -1.85701466    
 -0.327430397      0.377874792       0.00000000       3.06436632E-05  -1.85701466    
 -0.327430397      0.377874792      -8.18181783E-02   3.06436632E-05  -1.85701466    
 -0.420626789      0.270320386      -8.18181783E-02   3.06436632E-05  -1.85701466    
 -0.479746491      0.140866295       0.00000000       1.17543368E-05   2.19084883    
 -0.420626789      0.270320386       0.00000000       1.17543368E-05   2.19084883    
 -0.420626789      0.270320386      -8.18181783E-02   1.17543368E-05   2.19084883    
 -0.479746491      0.140866295      -8.18181783E-02   1.17543368E-05   2.19084883    
 -0.500000000       2.84000009E-16   0.00000000       6.55999020E-06  -1.98050845    
 -0.479746491      0.140866295       0.00000000       6.55999020E-06  -1.98050845    
 -0.479746491      0.140866295      -8.18181783E-02   6.55999020E-06  -1.98050845    
 -0.500000000       2.84000009E-16  -8.18181783E-02   6.55999020E-06  -1.98050845    
  0.479746491      0.140866295      -8.18181783E-02   4.97023211E-06  0.926455975    
  0.500000000       0.00000000      -8.18181783E-02   4.97023211E-06  0.926455975    
  0.500000000       0.00000000     -0.163636401       4.97023211E-06  0.926455975    
  0.479746491      0.140866295     -0.163636401       4.97023211E-06  0.926455975    
  0.420626789      0.270320386      -8.18181783E-02   1.61692315E-05  -1.09544992    
  0.479746491      0.140866295      -8.18181783E-02   1.61692315E-05  -1.09544992    
  0.479746491      0.140866295     -0.163636401       1.61692315E-05  -1.09544992    
  0.420626789      0.270320386     -0.163636401       1.61692315E-05  -1.09544992    
  0.327430397      0.377874792      -8.18181783E-02   2.29301968E-05   1.20120001    
  0.420626789      0.270320386      -8.18181783E-02   2.29301968E-05   1.20120001    
  0.420626789      0.270320386     -0.163636401       2.29301968E-05   1.20120001    
  0.327430397      0.377874792     -0.163636401       2.29301968E-05   1.20120001    
  0.207707494      0.454816014      -8.18181783E-02   1.93736996E-05  -1.25597882    
  0.327430397      0.377874792      -8.18181783E-02   1.93736996E-05  -1.25597882    
  0.327430397      0.377874792     -0.163636401       1.93736996E-05  -1.25597882    
  0.207707494      0.454816014     -0.163636401       1.93736996E-05  -1.25597882    
   7.11574182E-02  0.494910687      -8.18181783E-02   1.66996379E-05   1.42648613    
  0.207707494      0.454816014      -8.18181783E-02   1.66996379E-05   1.42648613    
  0.207707494      0.454816014     -0.163636401       1.66996379E-05   1.42648613    
   7.11574182E-02  0.494910687     -0.163636401       1.66996379E-05   1.42648613    
  -7.11574182E-02  0.494910687      -8.18181783E-02   9.11461086E-07   2.92077351    
   7.11574182E-02  0.494910687      -8.18181783E-02   9.11461086E-07   2.92077351    
   7.11574182E-02  0.494910687     -0.163636401       9.11461086E-07   2.92077351    
  -7.11574182E-02  0.494910687     -0.163636401       9.11461086E-07   2.92077351    
 -0.207707494      0.454816014      -8.18181783E-02   1.61073931E-05  -1.77770293    
  -7.11574182E-02  0.494910687      -8.18181783E-02   1.61073931E-05  -1.77770293    
  -7.11574182E-02  0.494910687     -0.163636401       1.61073931E-05  -1.77770293    
 -0.207707494      0.454816014     -0.163636401       1.61073931E-05  -1.77770293    
 -0.327430397      0.377874792      -8.18181783E-02   2.01325693E-05   1.81334364    
 -0.207707494      0.454816014      -8.18181783E-02   2.01325693E-05   1.81334364    
 -0.207707494      0.454816014     -0.163636401       2.01325693E-05   1.81334364    
 -0.327430397      0.377874792     -0.163636401       2.01325693E-05   1.81334364    
 -0.420626789      0.270320386      -8.18181783E-02   2.19649282E-05  -1.81184340    
 -0.327430397      0.377874792      -8.18181783E-02   2.19649282E-05  -1.81184340    
 -0.327430397      0.377874792     -0.163636401       2.19649282E-05  -1.81184340    
 -0.420626789      0.270320386     -0.163636401       2.19649282E-05  -1.81184340    
 -0.479746491      0.140866295      -8.18181783E-02   1.28265428E-05   1.89949739    
 -0.420626789      0.270320386      -8.18181783E-02   1.28265428E-05   1.89949739    
 -0.420626789      0.270320386     -0.163636401       1.28265428E-05   1.89949739    
 -0.479746491      0.140866295     -0.163636401       1.28265428E-05   1.89949739    
 -0.500000000       2.84000009E-16  -8.18181783E-02   5.08056746E-06  -1.88794482    
 -0.479746491      0.140866295      -8.18181783E-02   5.08056746E-06  -1.88794482    
 -0.479746491      0.140866295     -0.163636401       5.08056746E-06  -1.88794482    
 -0.500000000       2.84000009E-16 -0.163636401       5.08056746E-06  -1.88794482    
  0.479746491      0.140866295     -0.163636401       1.83039458E-06  0.150879607    
  0.500000000       0.00000000     -0.163636401       1.83039458E-06  0.150879607    
  0.500000000       0.00000000     -0.245454505       1.83039458E-06  0.150879607    
  0.479746491      0.140866295     -0.245454505       1.83039458E-06  0.150879607    
  0.420626789      0.270320386     -0.163636401       2.44542680E-05  -1.38634217    
  0.479746491      0.140866295     -0.163636401       2.44542680E-05  -1.38634217    
  0.479746491      0.140866295     -0.245454505       2.44542680E-05  -1.38634217    
  0.420626789      0.270320386     -0.245454505       2.44542680E-05  -1.38634217    
  0.327430397      0.377874792     -0.163636401       8.09761332E-06  0.902101994    
  0.420626789      0.270320386     -0.163636401       8.09761332E-06  0.902101994    
  0.420626789      0.270320386     -0.245454505       8.09761332E-06  0.902101994    
  0.327430397      0.377874792     -0.245454505       8.09761332E-06  0.902101994    
  0.207707494      0.454816014     -0.163636401       2.47935477E-05  -1.42367435    
  0.327430397      0.377874792     -0.163636401       2.47935477E-05  -1.42367435    
  0.327430397      0.377874792     -0.245454505       2.47935477E-05  -1.42367435    
  0.207707494      0.454816014     -0.245454505       2.47935477E-05  -1.42367435    
   7.11574182E-02  0.494910687     -0.163636401       8.62373872E-06   1.40156937    
  0.207707494      0.454816014     -0.163636401       8.62373872E-06   1.40156937    
  0.207707494      0.454816014     -0.245454505       8.62373872E-06   1.40156937    
   7.11574182E-02  0.494910687     -0.245454505       8.62373872E-06   1.40156937    
  -7.11574182E-02  0.494910687     -0.163636401       5.44240947E-07   3.12007928    
   7.11574182E-02  0.494910687     -0.163636401       5.44240947E-07   3.12007928    
   7.11574182E-02  0.494910687     -0.245454505       5.44240947E-07   3.12007928    
  -7.11574182E-02  0.494910687     -0.245454505       5.44240947E-07   3.12007928    
 -0.207707494      0.454816014     -0.163636401       8.56252518E-06  -1.80799413    
  -7.11574182E-02  0.494910687     -0.163636401       8.56252518E-06  -1.80799413    
  -7.11574182E-02  0.494910687     -0.245454505       8.56252518E-06  -1.80799413    
 -0.207707494      0.454816014     -0.245454505       8.56252518E-06  -1.80799413    
 -0.327430397      0.377874792     -0.163636401       2.48073629E-05   1.68947792    
 -0.207707494      0.454816014     -0.163636401       2.48073629E-05   1.68947792    
 -0.207707494      0.454816014     -0.245454505       2.48073629E-05   1.68947792    
 -0.327430397      0.377874792     -0.245454505       2.48073629E-05   1.68947792    
 -0.420626789      0.270320386     -0.163636401       8.64404501E-06  -1.94794893    
 -0.327430397      0.377874792     -0.163636401       8.64404501E-06  -1.94794893    
 -0.327430397      0.377874792     -0.245454505       8.64404501E-06  -1.94794893    
 -0.420626789      0.270320386     -0.245454505       8.64404501E-06  -1.94794893    
 -0.479746491      0.140866295     -0.163636401       1.52728571E-05   1.73607934    
 -0.420626789      0.270320386     -0.163636401       1.52728571E-05   1.73607934    
 -0.420626789      0.270320386     -0.245454505       1.52728571E-05   1.73607934    
 -0.479746491      0.140866295     -0.245454505       1.52728571E-05   1.73607934    
 -0.500000000       2.84000009E-16 -0.163636401       2.23047550E-06  -2.01642036    
 -0.479746491      0.140866295     -0.163636401       2.23047550E-06  -2.01642036    
 -0.479746491      0.140866295     -0.245454505       2.23047550E-06  -2.01642036    
 -0.500000000       2.84000009E-16 -0.245454505       2.23047550E-06  -2.01642036    
  0.479746491      0.140866295     -0.245454505       1.25849283E-06  0.505455136    
  0.500000000       0.00000000     -0.245454505       1.25849283E-06  0.505455136    
  0.500000000       0.00000000     -0.327272713       1.25849283E-06  0.505455136    
  0.479746491      0.140866295     -0.327272713       1.25849283E-06  0.505455136    
  0.420626789      0.270320386     -0.245454505       2.55090090E-05  -1.46358776    
  0.479746491      0.140866295     -0.245454505       2.55090090E-05  -1.46358776    
  0.479746491      0.140866295     -0.327272713       2.55090090E-05  -1.46358776    
  0.420626789      0.270320386     -0.327272713       2.55090090E-05  -1.46358776    
  0.327430397      0.377874792     -0.245454505       1.35330711E-05  -1.34302282    
  0.420626789      0.270320386     -0.245454505       1.35330711E-05  -1.34302282    
  0.420626789      0.270320386     -0.327272713       1.35330711E-05  -1.34302282    
  0.327430397      0.377874792     -0.327272713       1.35330711E-05  -1.34302282    
  0.207707494      0.454816014     -0.245454505       2.98124432E-05  -1.49650300    
  0.327430397      0.377874792     -0.245454505       2.98124432E-05  -1.49650300    
  0.327430397      0.377874792     -0.327272713       2.98124432E-05  -1.49650300    
  0.207707494      0.454816014     -0.327272713       2.98124432E-05  -1.49650300    
   7.11574182E-02  0.494910687     -0.245454505       9.06960304E-06   1.47322953    
  0.207707494      0.454816014     -0.245454505       9.06960304E-06   1.47322953    
  0.207707494      0.454816014     -0.327272713       9.06960304E-06   1.47322953    
   7.11574182E-02  0.494910687     -0.327272713       9.06960304E-06   1.47322953    
  -7.11574182E-02  0.494910687     -0.245454505       3.64921931E-07  -2.72913074    
   7.11574182E-02  0.494910687     -0.245454505       3.64921931E-07  -2.72913074    
   7.11574182E-02  0.494910687     -0.327272713       3.64921931E-07  -2.72913074    
  -7.11574182E-02  0.494910687     -0.327272713       3.64921931E-07  -2.72913074    
 -0.207707494      0.454816014     -0.245454505       9.39310485E-06  -1.70216346    
  -7.11574182E-02  0.494910687     -0.245454505       9.39310485E-06  -1.70216346    
  -7.11574182E-02  0.494910687     -0.327272713       9.39310485E-06  -1.70216346    
 -0.207707494      0.454816014     -0.327272713       9.39310485E-06  -1.70216346    
 -0.327430397      0.377874792     -0.245454505       2.90917542E-05   1.63252616    
 -0.207707494      0.454816014     -0.245454505       2.90917542E-05   1.63252616    
 -0.207707494      0.454816014     -0.327272713       2.90917542E-05   1.63252616    
 -0.327430397      0.377874792     -0.327272713       2.90917542E-05   1.63252616    
 -0.420626789      0.270320386     -0.245454505       1.03260409E-05   1.76014972    
 -0.327430397      0.377874792     -0.245454505       1.03260409E-05   1.76014972    
 -0.327430397      0.377874792     -0.327272713       1.03260409E-05   1.76014972    
 -0.420626789      0.270320386     -0.327272713       1.03260409E-05   1.76014972    
 -0.479746491      0.140866295     -0.245454505       1.41684741E-05   1.67922783    
 -0.420626789      0.270320386     -0.245454505       1.41684741E-05   1.67922783    
 -0.420626789      0.270320386     -0.327272713       1.41684741E-05   1.67922783    
 -0.479746491      0.140866295     -0.327272713       1.41684741E-05   1.67922783    
 -0.500000000       2.84000009E-16 -0.245454505       3.09195320E-06  -1.76161087    
 -0.479746491      0.140866295     -0.245454505       3.09195320E-06  -1.76161087    
 -0.479746491      0.140866295     -0.327272713       3.09195320E-06  -1.76161087    
 -0.500000000       2.84000009E-16 -0.327272713       3.09195320E-06  -1.76161087    
  0.479746491      0.140866295     -0.327272713       2.67375594E-06  -1.31594872    
  0.500000000       0.00000000     -0.327272713       2.67375594E-06  -1.31594872    
  0.500000000       0.00000000     -0.409090906       2.67375594E-06  -1.31594872    
  0.479746491      0.140866295     -0.409090906       2.67375594E-06  -1.31594872    
  0.420626789      0.270320386     -0.327272713       3.23717250E-05  -1.51913393    
  0.479746491      0.140866295     -0.327272713       3.23717250E-05  -1.51913393    
  0.479746491      0.140866295     -0.409090906       3.23717250E-05  -1.51913393    
  0.420626789      0.270320386     -0.409090906       3.23717250E-05  -1.51913393    
  0.327430397      0.377874792     -0.327272713       5.49313791E-06  -1.22279286    
  0.420626789      0.270320386     -0.327272713       5.49313791E-06  -1.22279286    
  0.420626789      0.270320386     -0.409090906       5.49313791E-06  -1.22279286    
  0.327430397      0.377874792     -0.409090906       5.49313791E-06  -1.22279286    
  0.207707494      0.454816014     -0.327272713       3.31210576E-05  -1.52977347    
  0.327430397      0.377874792     -0.327272713       3.31210576E-05  -1.52977347    
  0.327430397      0.377874792     -0.409090906       3.31210576E-05  -1.52977347    
  0.207707494      0.454816014     -0.409090906       3.31210576E-05  -1.52977347    
   7.11574182E-02  0.494910687     -0.327272713       2.74451872E-06   1.37163246    
  0.207707494      0.454816014     -0.327272713       2.74451872E-06   1.37163246    
  0.207707494      0.454816014     -0.409090906       2.74451872E-06   1.37163246    
   7.11574182E-02  0.494910687     -0.409090906       2.74451872E-06   1.37163246    
  -7.11574182E-02  0.494910687     -0.327272713       3.47009603E-07  -2.20893979    
   7.11574182E-02  0.494910687     -0.327272713       3.47009603E-07  -2.20893979    
   7.11574182E-02  0.494910687     -0.409090906       3.47009603E-07  -2.20893979    
  -7.11574182E-02  0.494910687     -0.409090906       3.47009603E-07  -2.20893979    
 -0.207707494      0.454816014     -0.327272713       3.42523549E-06  -1.79449975    
  -7.11574182E-02  0.494910687     -0.327272713       3.42523549E-06  -1.79449975    
  -7.11574182E-02  0.494910687     -0.409090906       3.42523549E-06  -1.79449975    
 -0.207707494      0.454816014     -0.409090906       3.42523549E-06  -1.79449975    
 -0.327430397      0.377874792     -0.327272713       3.18233542E-05   1.60561121    
 -0.207707494      0.454816014     -0.327272713       3.18233542E-05   1.60561121    
 -0.207707494      0.454816014     -0.409090906       3.18233542E-05   1.60561121    
 -0.327430397      0.377874792     -0.409090906       3.18233542E-05   1.60561121    
 -0.420626789      0.270320386     -0.327272713       1.72925070E-06   2.33626652    
 -0.327430397      0.377874792     -0.327272713       1.72925070E-06   2.33626652    
 -0.327430397      0.377874792     -0.409090906       1.72925070E-06   2.33626652    
 -0.420626789      0.270320386     -0.409090906       1.72925070E-06   2.33626652    
 -0.479746491      0.140866295     -0.327272713       2.00814775E-05   1.61782682    
 -0.420626789      0.270320386     -0.327272713       2.00814775E-05   1.61782682    
 -0.420626789      0.270320386     -0.409090906       2.00814775E-05   1.61782682    
 -0.479746491      0.140866295     -0.409090906       2.00814775E-05   1.61782682    
 -0.500000000       2.84000009E-16 -0.327272713       4.24490480E-07  -2.58682203    
 -0.479746491      0.140866295     -0.327272713       4.24490480E-07  -2.58682203    
 -0.479746491      0.140866295     -0.409090906       4.24490480E-07  -2.58682203    
 -0.500000000       2.84000009E-16 -0.409090906       4.24490480E-07  -2.58682203    
  0.479746491      0.140866295     -0.409090906       3.05868457E-06  -1.43568110    
  0.500000000       0.00000000     -0.409090906       3.05868457E-06  -1.43568110    
  0.500000000       0.00000000     -0.490909100       3.05868457E-06  -1.43568110    
  0.479746491      0.140866295     -0.490909100       3.05868457E-06  -1.43568110    
  0.420626789      0.270320386     -0.409090906       3.42537533E-05  -1.54094470    
  0.479746491      0.140866295     -0.409090906       3.42537533E-05  -1.54094470    
  0.479746491      0.140866295     -0.490909100       3.42537533E-05  -1.54094470    
  0.420626789      0.270320386     -0.490909100       3.42537533E-05  -1.54094470    
  0.327430397      0.377874792     -0.409090906       8.84133260E-06  -1.44070339    
  0.420626789      0.270320386     -0.409090906       8.84133260E-06  -1.44070339    
  0.420626789      0.270320386     -0.490909100       8.84133260E-06  -1.44070339    
  0.327430397      0.377874792     -0.490909100       8.84133260E-06  -1.44070339    
  0.207707494      0.454816014     -0.409090906       3.60080594E-05  -1.54766238    
  0.327430397      0.377874792     -0.409090906       3.60080594E-05  -1.54766238    
  0.327430397      0.377874792     -0.490909100       3.60080594E-05  -1.54766238    
  0.207707494      0.454816014     -0.490909100       3.60080594E-05  -1.54766238    
   7.11574182E-02  0.494910687     -0.409090906       1.40305190E-06   1.33101881    
  0.207707494      0.454816014     -0.409090906       1.40305190E-06   1.33101881    
  0.207707494      0.454816014     -0.490909100       1.40305190E-06   1.33101881    
   7.11574182E-02  0.494910687     -0.490909100       1.40305190E-06   1.33101881    
  -7.11574182E-02  0.494910687     -0.409090906       4.08849246E-07  -1.89014816    
   7.11574182E-02  0.494910687     -0.409090906       4.08849246E-07  -1.89014816    
   7.11574182E-02  0.494910687     -0.490909100       4.08849246E-07  -1.89014816    
  -7.11574182E-02  0.494910687     -0.490909100       4.08849246E-07  -1.89014816    
 -0.207707494      0.454816014     -0.409090906       2.34155027E-06  -1.77280867    
  -7.11574182E-02  0.494910687     -0.409090906       2.34155027E-06  -1.77280867    
  -7.11574182E-02  0.494910687     -0.490909100       2.34155027E-06  -1.77280867    
 -0.207707494      0.454816014     -0.490909100       2.34155027E-06  -1.77280867    
 -0.327430397      0.377874792     -0.409090906       3.43059764E-05   1.59073055    
 -0.207707494      0.454816014     -0.409090906       3.43059764E-05   1.59073055    
 -0.207707494      0.454816014     -0.490909100       3.43059764E-05   1.59073055    
 -0.327430397      0.377874792     -0.490909100       3.43059764E-05   1.59073055    
 -0.420626789      0.270320386     -0.409090906       4.42071359E-06   1.73854566    
 -0.327430397      0.377874792     -0.409090906       4.42071359E-06   1.73854566    
 -0.327430397      0.377874792     -0.490909100       4.42071359E-06   1.73854566    
 -0.420626789      0.270320386     -0.490909100       4.42071359E-06   1.73854566    
 -0.479746491      0.140866295     -0.409090906       2.15588680E-05   1.59772587    
 -0.420626789      0.270320386     -0.409090906       2.15588680E-05   1.59772587    
 -0.420626789      0.270320386     -0.490909100       2.15588680E-05   1.59772587    
 -0.479746491      0.140866295     -0.490909100       2.15588680E-05   1.59772587    
 -0.500000000       2.84000009E-16 -0.409090906       2.28532187E-07   2.89521909    
 -0.479746491      0.140866295     -0.409090906       2.28532187E-07   2.89521909    
 -0.479746491      0.140866295     -0.490909100       2.28532187E-07   2.89521909    
 -0.500000000       2.84000009E-16 -0.490909100       2.28532187E-07   2.89521909    
  0.479746491      0.140866295     -0.490909100       4.23990969E-07 -0.925218403    
  0.500000000       0.00000000     -0.490909100       4.23990969E-07 -0.925218403    
  0.500000000       0.00000000     -0.572727323       4.23990969E-07 -0.925218403    
  0.479746491      0.140866295     -0.572727323       4.23990969E-07 -0.925218403    
  0.420626789      0.270320386     -0.490909100       3.07657901E-05  -1.55020440    
  0.479746491      0.140866295     -0.490909100       3.07657901E-05  -1.55020440    
  0.479746491      0.140866295     -0.572727323       3.07657901E-05  -1.55020440    
  0.420626789      0.270320386     -0.572727323       3.07657901E-05  -1.55020440    
  0.327430397      0.377874792     -0.490909100       2.63220081E-05  -1.54375279    
  0.420626789      0.270320386     -0.490909100       2.63220081E-05  -1.54375279    
  0.420626789      0.270320386     -0.572727323       2.63220081E-05  -1.54375279    
  0.327430397      0.377874792     -0.572727323       2.63220081E-05  -1.54375279    
  0.207707494      0.454816014     -0.490909100       3.90702444E-05  -1.55753887    
  0.327430397      0.377874792     -0.490909100       3.90702444E-05  -1.55753887    
  0.327430397      0.377874792     -0.572727323       3.90702444E-05  -1.55753887    
  0.207707494      0.454816014     -0.572727323       3.90702444E-05  -1.55753887    
   7.11574182E-02  0.494910687     -0.490909100       5.39069651E-06   1.53231788    
  0.207707494      0.454816014     -0.490909100       5.39069651E-06   1.53231788    
  0.207707494      0.454816014     -0.572727323       5.39069651E-06   1.53231788    
   7.11574182E-02  0.494910687     -0.572727323       5.39069651E-06   1.53231788    
  -7.11574182E-02  0.494910687     -0.490909100       4.79904998E-07  -1.74090266    
   7.11574182E-02  0.494910687     -0.490909100       4.79904998E-07  -1.74090266    
   7.11574182E-02  0.494910687     -0.572727323       4.79904998E-07  -1.74090266    
  -7.11574182E-02  0.494910687     -0.572727323       4.79904998E-07  -1.74090266    
 -0.207707494      0.454816014     -0.490909100       6.52876042E-06  -1.61607611    
  -7.11574182E-02  0.494910687     -0.490909100       6.52876042E-06  -1.61607611    
  -7.11574182E-02  0.494910687     -0.572727323       6.52876042E-06  -1.61607611    
 -0.207707494      0.454816014     -0.572727323       6.52876042E-06  -1.61607611    
 -0.327430397      0.377874792     -0.490909100       3.71206042E-05   1.58235943    
 -0.207707494      0.454816014     -0.490909100       3.71206042E-05   1.58235943    
 -0.207707494      0.454816014     -0.572727323       3.71206042E-05   1.58235943    
 -0.327430397      0.377874792     -0.572727323       3.71206042E-05   1.58235943    
 -0.420626789      0.270320386     -0.490909100       2.17533543E-05   1.59203506    
 -0.327430397      0.377874792     -0.490909100       2.17533543E-05   1.59203506    
 -0.327430397      0.377874792     -0.572727323       2.17533543E-05   1.59203506    
 -0.420626789      0.270320386     -0.572727323       2.17533543E-05   1.59203506    
 -0.479746491      0.140866295     -0.490909100       1.81623600E-05   1.59075272    
 -0.420626789      0.270320386     -0.490909100       1.81623600E-05   1.59075272    
 -0.420626789      0.270320386     -0.572727323       1.81623600E-05   1.59075272    
 -0.479746491      0.140866295     -0.572727323       1.81623600E-05   1.59075272    
 -0.500000000       2.84000009E-16 -0.490909100       2.60900742E-06  -1.62378418    
 -0.479746491      0.140866295     -0.490909100       2.60900742E-06  -1.62378418    
 -0.479746491      0.140866295     -0.572727323       2.60900742E-06  -1.62378418    
 -0.500000000       2.84000009E-16 -0.572727323       2.60900742E-06  -1.62378418    
  0.479746491      0.140866295     -0.572727323       8.13392489E-07   1.37044406    
  0.500000000       0.00000000     -0.572727323       8.13392489E-07   1.37044406    
  0.500000000       0.00000000     -0.654545426       8.13392489E-07   1.37044406    
  0.479746491      0.140866295     -0.654545426       8.13392489E-07   1.37044406    
  0.420626789      0.270320386     -0.572727323       2.99710591E-05  -1.55736578    
  0.479746491      0.140866295     -0.572727323       2.99710591E-05  -1.55736578    
  0.479746491      0.140866295     -0.654545426       2.99710591E-05  -1.55736578    
  0.420626789      0.270320386     -0.654545426       2.99710591E-05  -1.55736578    
  0.327430397      0.377874792     -0.572727323       2.82575093E-05  -1.55474865    
  0.420626789      0.270320386     -0.572727323       2.82575093E-05  -1.55474865    
  0.420626789      0.270320386     -0.654545426       2.82575093E-05  -1.55474865    
  0.327430397      0.377874792     -0.654545426       2.82575093E-05  -1.55474865    
  0.207707494      0.454816014     -0.572727323       4.24679129E-05  -1.56299579    
  0.327430397      0.377874792     -0.572727323       4.24679129E-05  -1.56299579    
  0.327430397      0.377874792     -0.654545426       4.24679129E-05  -1.56299579    
  0.207707494      0.454816014     -0.654545426       4.24679129E-05  -1.56299579    
   7.11574182E-02  0.494910687     -0.572727323       4.54151041E-06   1.54146397    
  0.207707494      0.454816014     -0.572727323       4.54151041E-06   1.54146397    
  0.207707494      0.454816014     -0.654545426       4.54151041E-06   1.54146397    
   7.11574182E-02  0.494910687     -0.654545426       4.54151041E-06   1.54146397    
  -7.11574182E-02  0.494910687     -0.572727323       5.40021801E-07  -1.66862679    
   7.11574182E-02  0.494910687     -0.572727323       5.40021801E-07  -1.66862679    
   7.11574182E-02  0.494910687     -0.654545426       5.40021801E-07  -1.66862679    
  -7.11574182E-02  0.494910687     -0.654545426       5.40021801E-07  -1.66862679    
 -0.207707494      0.454816014     -0.572727323       5.81728227E-06  -1.60379505    
  -7.11574182E-02  0.494910687     -0.572727323       5.81728227E-06  -1.60379505    
  -7.11574182E-02  0.494910687     -0.654545426       5.81728227E-06  -1.60379505    
 -0.207707494      0.454816014     -0.654545426       5.81728227E-06  -1.60379505    
 -0.327430397      0.377874792     -0.572727323       4.03963422E-05   1.57769573    
 -0.207707494      0.454816014     -0.572727323       4.03963422E-05   1.57769573    
 -0.207707494      0.454816014     -0.654545426       4.03963422E-05   1.57769573    
 -0.327430397      0.377874792     -0.654545426       4.03963422E-05   1.57769573    
 -0.420626789      0.270320386     -0.572727323       2.38712182E-05   1.58333635    
 -0.327430397      0.377874792     -0.572727323       2.38712182E-05   1.58333635    
 -0.327430397      0.377874792     -0.654545426       2.38712182E-05   1.58333635    
 -0.420626789      0.270320386     -0.654545426       2.38712182E-05   1.58333635    
 -0.479746491      0.140866295     -0.572727323       1.85083954E-05   1.58345342    
 -0.420626789      0.270320386     -0.572727323       1.85083954E-05   1.58345342    
 -0.420626789      0.270320386     -0.654545426       1.85083954E-05   1.58345342    