 VARIABLES="X" "Y" "Z" "abs(p) (Pa)" "angle(p) (rad)"
ZONE N=    528,E =     462, F=FEPOINT, ET=QUADRILATERAL
  0.479746491      0.140866295       0.00000000       837.973755       2.72043943    
  0.500000000       0.00000000       0.00000000       837.973755       2.72043943    
  0.500000000       0.00000000      -8.18181783E-02   837.973755       2.72043943    
  0.479746491      0.140866295      -8.18181783E-02   837.973755       2.72043943    
  0.420626789      0.270320386       0.00000000       770.086121       2.72043920    
  0.479746491      0.140866295       0.00000000       770.086121       2.72043920    
  0.479746491      0.140866295      -8.18181783E-02   770.086121       2.72043920    
  0.420626789      0.270320386      -8.18181783E-02   770.086121       2.72043920    
  0.327430397      0.377874792       0.00000000       639.810303       2.72043943    
  0.420626789      0.270320386       0.00000000       639.810303       2.72043943    
  0.420626789      0.270320386      -8.18181783E-02   639.810303       2.72043943    
  0.327430397      0.377874792      -8.18181783E-02   639.810303       2.72043943    
  0.207707494      0.454816014       0.00000000       457.701385       2.72043920    
  0.327430397      0.377874792       0.00000000       457.701385       2.72043920    
  0.327430397      0.377874792      -8.18181783E-02   457.701385       2.72043920    
  0.207707494      0.454816014      -8.18181783E-02   457.701385       2.72043920    
   7.11574182E-02  0.494910687       0.00000000       238.512299       2.72043991    
  0.207707494      0.454816014       0.00000000       238.512299       2.72043991    
  0.207707494      0.454816014      -8.18181783E-02   238.512299       2.72043991    
   7.11574182E-02  0.494910687      -8.18181783E-02   238.512299       2.72043991    
  -7.11574182E-02  0.494910687       0.00000000       4.49098297E-05  -2.51495600    
   7.11574182E-02  0.494910687       0.00000000       4.49098297E-05  -2.51495600    
   7.11574182E-02  0.494910687      -8.18181783E-02   4.49098297E-05  -2.51495600    
  -7.11574182E-02  0.494910687      -8.18181783E-02   4.49098297E-05  -2.51495600    
 -0.207707494      0.454816014       0.00000000       238.512146     -0.421152920    
  -7.11574182E-02  0.494910687       0.00000000       238.512146     -0.421152920    
  -7.11574182E-02  0.494910687      -8.18181783E-02   238.512146     -0.421152920    
 -0.207707494      0.454816014      -8.18181783E-02   238.512146     -0.421152920    
 -0.327430397      0.377874792       0.00000000       457.701355     -0.421153605    
 -0.207707494      0.454816014       0.00000000       457.701355     -0.421153605    
 -0.207707494      0.454816014      -8.18181783E-02   457.701355     -0.421153605    
 -0.327430397      0.377874792      -8.18181783E-02   457.701355     -0.421153605    
 -0.420626789      0.270320386       0.00000000       639.810608     -0.421153516    
 -0.327430397      0.377874792       0.00000000       639.810608     -0.421153516    
 -0.327430397      0.377874792      -8.18181783E-02   639.810608     -0.421153516    
 -0.420626789      0.270320386      -8.18181783E-02   639.810608     -0.421153516    
 -0.479746491      0.140866295       0.00000000       770.086182     -0.421153337    
 -0.420626789      0.270320386       0.00000000       770.086182     -0.421153337    
 -0.420626789      0.270320386      -8.18181783E-02   770.086182     -0.421153337    
 -0.479746491      0.140866295      -8.18181783E-02   770.086182     -0.421153337    
 -0.500000000       2.84000009E-16   0.00000000       837.973694     -0.421153456    
 -0.479746491      0.140866295       0.00000000       837.973694     -0.421153456    
 -0.479746491      0.140866295      -8.18181783E-02   837.973694     -0.421153456    
 -0.500000000       2.84000009E-16  -8.18181783E-02   837.973694     -0.421153456    
  0.479746491      0.140866295      -8.18181783E-02   749.542847       2.65935540    
  0.500000000       0.00000000      -8.18181783E-02   749.542847       2.65935540    
  0.500000000       0.00000000     -0.163636401       749.542847       2.65935540    
  0.479746491      0.140866295     -0.163636401       749.542847       2.65935540    
  0.420626789      0.270320386      -8.18181783E-02   688.819458       2.65935564    
  0.479746491      0.140866295      -8.18181783E-02   688.819458       2.65935564    
  0.479746491      0.140866295     -0.163636401       688.819458       2.65935564    
  0.420626789      0.270320386     -0.163636401       688.819458       2.65935564    
  0.327430397      0.377874792      -8.18181783E-02   572.291992       2.65935564    
  0.420626789      0.270320386      -8.18181783E-02   572.291992       2.65935564    
  0.420626789      0.270320386     -0.163636401       572.291992       2.65935564    
  0.327430397      0.377874792     -0.163636401       572.291992       2.65935564    
  0.207707494      0.454816014      -8.18181783E-02   409.400757       2.65935516    
  0.327430397      0.377874792      -8.18181783E-02   409.400757       2.65935516    
  0.327430397      0.377874792     -0.163636401       409.400757       2.65935516    
  0.207707494      0.454816014     -0.163636401       409.400757       2.65935516    
   7.11574182E-02  0.494910687      -8.18181783E-02   213.342285       2.65935540    
  0.207707494      0.454816014      -8.18181783E-02   213.342285       2.65935540    
  0.207707494      0.454816014     -0.163636401       213.342285       2.65935540    
   7.11574182E-02  0.494910687     -0.163636401       213.342285       2.65935540    
  -7.11574182E-02  0.494910687      -8.18181783E-02   5.88767798E-05   2.42231631    
   7.11574182E-02  0.494910687      -8.18181783E-02   5.88767798E-05   2.42231631    
   7.11574182E-02  0.494910687     -0.163636401       5.88767798E-05   2.42231631    
  -7.11574182E-02  0.494910687     -0.163636401       5.88767798E-05   2.42231631    
 -0.207707494      0.454816014      -8.18181783E-02   213.342117     -0.482237428    
  -7.11574182E-02  0.494910687      -8.18181783E-02   213.342117     -0.482237428    
  -7.11574182E-02  0.494910687     -0.163636401       213.342117     -0.482237428    
 -0.207707494      0.454816014     -0.163636401       213.342117     -0.482237428    
 -0.327430397      0.377874792      -8.18181783E-02   409.400604     -0.482237369    
 -0.207707494      0.454816014      -8.18181783E-02   409.400604     -0.482237369    
 -0.207707494      0.454816014     -0.163636401       409.400604     -0.482237369    
 -0.327430397      0.377874792     -0.163636401       409.400604     -0.482237369    
 -0.420626789      0.270320386      -8.18181783E-02   572.291870     -0.482237309    
 -0.327430397      0.377874792      -8.18181783E-02   572.291870     -0.482237309    
 -0.327430397      0.377874792     -0.163636401       572.291870     -0.482237309    
 -0.420626789      0.270320386     -0.163636401       572.291870     -0.482237309    
 -0.479746491      0.140866295      -8.18181783E-02   688.819336     -0.482237041    
 -0.420626789      0.270320386      -8.18181783E-02   688.819336     -0.482237041    
 -0.420626789      0.270320386     -0.163636401       688.819336     -0.482237041    
 -0.479746491      0.140866295     -0.163636401       688.819336     -0.482237041    
 -0.500000000       2.84000009E-16  -8.18181783E-02   749.542908     -0.482237160    
 -0.479746491      0.140866295      -8.18181783E-02   749.542908     -0.482237160    
 -0.479746491      0.140866295     -0.163636401       749.542908     -0.482237160    
 -0.500000000       2.84000009E-16 -0.163636401       749.542908     -0.482237160    
  0.479746491      0.140866295     -0.163636401       693.444397       2.55581379    
  0.500000000       0.00000000     -0.163636401       693.444397       2.55581379    
  0.500000000       0.00000000     -0.245454505       693.444397       2.55581379    
  0.479746491      0.140866295     -0.245454505       693.444397       2.55581379    
  0.420626789      0.270320386     -0.163636401       637.265259       2.55581379    
  0.479746491      0.140866295     -0.163636401       637.265259       2.55581379    
  0.479746491      0.140866295     -0.245454505       637.265259       2.55581379    
  0.420626789      0.270320386     -0.245454505       637.265259       2.55581379    
  0.327430397      0.377874792     -0.163636401       529.459167       2.55581403    
  0.420626789      0.270320386     -0.163636401       529.459167       2.55581403    
  0.420626789      0.270320386     -0.245454505       529.459167       2.55581403    
  0.327430397      0.377874792     -0.245454505       529.459167       2.55581403    
  0.207707494      0.454816014     -0.163636401       378.759369       2.55581403    
  0.327430397      0.377874792     -0.163636401       378.759369       2.55581403    
  0.327430397      0.377874792     -0.245454505       378.759369       2.55581403    
  0.207707494      0.454816014     -0.245454505       378.759369       2.55581403    
   7.11574182E-02  0.494910687     -0.163636401       197.374710       2.55581450    
  0.207707494      0.454816014     -0.163636401       197.374710       2.55581450    
  0.207707494      0.454816014     -0.245454505       197.374710       2.55581450    
   7.11574182E-02  0.494910687     -0.245454505       197.374710       2.55581450    
  -7.11574182E-02  0.494910687     -0.163636401       2.64617738E-05  -2.53305268    
   7.11574182E-02  0.494910687     -0.163636401       2.64617738E-05  -2.53305268    
   7.11574182E-02  0.494910687     -0.245454505       2.64617738E-05  -2.53305268    
  -7.11574182E-02  0.494910687     -0.245454505       2.64617738E-05  -2.53305268    
 -0.207707494      0.454816014     -0.163636401       197.374741     -0.585779011    
  -7.11574182E-02  0.494910687     -0.163636401       197.374741     -0.585779011    
  -7.11574182E-02  0.494910687     -0.245454505       197.374741     -0.585779011    
 -0.207707494      0.454816014     -0.245454505       197.374741     -0.585779011    
 -0.327430397      0.377874792     -0.163636401       378.759338     -0.585779011    
 -0.207707494      0.454816014     -0.163636401       378.759338     -0.585779011    
 -0.207707494      0.454816014     -0.245454505       378.759338     -0.585779011    
 -0.327430397      0.377874792     -0.245454505       378.759338     -0.585779011    
 -0.420626789      0.270320386     -0.163636401       529.459229     -0.585778773    
 -0.327430397      0.377874792     -0.163636401       529.459229     -0.585778773    
 -0.327430397      0.377874792     -0.245454505       529.459229     -0.585778773    
 -0.420626789      0.270320386     -0.245454505       529.459229     -0.585778773    
 -0.479746491      0.140866295     -0.163636401       637.265442     -0.585778832    
 -0.420626789      0.270320386     -0.163636401       637.265442     -0.585778832    
 -0.420626789      0.270320386     -0.245454505       637.265442     -0.585778832    
 -0.479746491      0.140866295     -0.245454505       637.265442     -0.585778832    
 -0.500000000       2.84000009E-16 -0.163636401       693.444214     -0.585779071    
 -0.479746491      0.140866295     -0.163636401       693.444214     -0.585779071    
 -0.479746491      0.140866295     -0.245454505       693.444214     -0.585779071    
 -0.500000000       2.84000009E-16 -0.245454505       693.444214     -0.585779071    
  0.479746491      0.140866295     -0.245454505       666.871582       2.42866015    
  0.500000000       0.00000000     -0.245454505       666.871582       2.42866015    
  0.500000000       0.00000000     -0.327272713       666.871582       2.42866015    
  0.479746491      0.140866295     -0.327272713       666.871582       2.42866015    
  0.420626789      0.270320386     -0.245454505       612.845520       2.42865968    
  0.479746491      0.140866295     -0.245454505       612.845520       2.42865968    
  0.479746491      0.140866295     -0.327272713       612.845520       2.42865968    
  0.420626789      0.270320386     -0.327272713       612.845520       2.42865968    
  0.327430397      0.377874792     -0.245454505       509.170532       2.42865992    
  0.420626789      0.270320386     -0.245454505       509.170532       2.42865992    
  0.420626789      0.270320386     -0.327272713       509.170532       2.42865992    
  0.327430397      0.377874792     -0.327272713       509.170532       2.42865992    
  0.207707494      0.454816014     -0.245454505       364.245392       2.42866015    
  0.327430397      0.377874792     -0.245454505       364.245392       2.42866015    
  0.327430397      0.377874792     -0.327272713       364.245392       2.42866015    
  0.207707494      0.454816014     -0.327272713       364.245392       2.42866015    
   7.11574182E-02  0.494910687     -0.245454505       189.811371       2.42866039    
  0.207707494      0.454816014     -0.245454505       189.811371       2.42866039    
  0.207707494      0.454816014     -0.327272713       189.811371       2.42866039    
   7.11574182E-02  0.494910687     -0.327272713       189.811371       2.42866039    
  -7.11574182E-02  0.494910687     -0.245454505       4.07850785E-05   2.17499924    
   7.11574182E-02  0.494910687     -0.245454505       4.07850785E-05   2.17499924    
   7.11574182E-02  0.494910687     -0.327272713       4.07850785E-05   2.17499924    
  -7.11574182E-02  0.494910687     -0.327272713       4.07850785E-05   2.17499924    
 -0.207707494      0.454816014     -0.245454505       189.811371     -0.712932527    
  -7.11574182E-02  0.494910687     -0.245454505       189.811371     -0.712932527    
  -7.11574182E-02  0.494910687     -0.327272713       189.811371     -0.712932527    
 -0.207707494      0.454816014     -0.327272713       189.811371     -0.712932527    
 -0.327430397      0.377874792     -0.245454505       364.245300     -0.712932825    
 -0.207707494      0.454816014     -0.245454505       364.245300     -0.712932825    
 -0.207707494      0.454816014     -0.327272713       364.245300     -0.712932825    
 -0.327430397      0.377874792     -0.327272713       364.245300     -0.712932825    
 -0.420626789      0.270320386     -0.245454505       509.170593     -0.712932646    
 -0.327430397      0.377874792     -0.245454505       509.170593     -0.712932646    
 -0.327430397      0.377874792     -0.327272713       509.170593     -0.712932646    
 -0.420626789      0.270320386     -0.327272713       509.170593     -0.712932646    
 -0.479746491      0.140866295     -0.245454505       612.845520     -0.712933064    
 -0.420626789      0.270320386     -0.245454505       612.845520     -0.712933064    
 -0.420626789      0.270320386     -0.327272713       612.845520     -0.712933064    
 -0.479746491      0.140866295     -0.327272713       612.845520     -0.712933064    
 -0.500000000       2.84000009E-16 -0.245454505       666.871460     -0.712932527    
 -0.479746491      0.140866295     -0.245454505       666.871460     -0.712932527    
 -0.479746491      0.140866295     -0.327272713       666.871460     -0.712932527    
 -0.500000000       2.84000009E-16 -0.327272713       666.871460     -0.712932527    
  0.479746491      0.140866295     -0.327272713       665.755127       2.29748559    
  0.500000000       0.00000000     -0.327272713       665.755127       2.29748559    
  0.500000000       0.00000000     -0.409090906       665.755127       2.29748559    
  0.479746491      0.140866295     -0.409090906       665.755127       2.29748559    
  0.420626789      0.270320386     -0.327272713       611.819458       2.29748583    
  0.479746491      0.140866295     -0.327272713       611.819458       2.29748583    
  0.479746491      0.140866295     -0.409090906       611.819458       2.29748583    
  0.420626789      0.270320386     -0.409090906       611.819458       2.29748583    
  0.327430397      0.377874792     -0.327272713       508.318054       2.29748583    
  0.420626789      0.270320386     -0.327272713       508.318054       2.29748583    
  0.420626789      0.270320386     -0.409090906       508.318054       2.29748583    
  0.327430397      0.377874792     -0.409090906       508.318054       2.29748583    
  0.207707494      0.454816014     -0.327272713       363.635590       2.29748535    
  0.327430397      0.377874792     -0.327272713       363.635590       2.29748535    
  0.327430397      0.377874792     -0.409090906       363.635590       2.29748535    
  0.207707494      0.454816014     -0.409090906       363.635590       2.29748535    
   7.11574182E-02  0.494910687     -0.327272713       189.493713       2.29748583    
  0.207707494      0.454816014     -0.327272713       189.493713       2.29748583    
  0.207707494      0.454816014     -0.409090906       189.493713       2.29748583    
   7.11574182E-02  0.494910687     -0.409090906       189.493713       2.29748583    
  -7.11574182E-02  0.494910687     -0.327272713       5.58518514E-05  -2.00362134    
   7.11574182E-02  0.494910687     -0.327272713       5.58518514E-05  -2.00362134    
   7.11574182E-02  0.494910687     -0.409090906       5.58518514E-05  -2.00362134    
  -7.11574182E-02  0.494910687     -0.409090906       5.58518514E-05  -2.00362134    
 -0.207707494      0.454816014     -0.327272713       189.493668     -0.844107449    
  -7.11574182E-02  0.494910687     -0.327272713       189.493668     -0.844107449    
  -7.11574182E-02  0.494910687     -0.409090906       189.493668     -0.844107449    
 -0.207707494      0.454816014     -0.409090906       189.493668     -0.844107449    
 -0.327430397      0.377874792     -0.327272713       363.635559     -0.844107509    
 -0.207707494      0.454816014     -0.327272713       363.635559     -0.844107509    
 -0.207707494      0.454816014     -0.409090906       363.635559     -0.844107509    
 -0.327430397      0.377874792     -0.409090906       363.635559     -0.844107509    
 -0.420626789      0.270320386     -0.327272713       508.318115     -0.844107270    
 -0.327430397      0.377874792     -0.327272713       508.318115     -0.844107270    
 -0.327430397      0.377874792     -0.409090906       508.318115     -0.844107270    
 -0.420626789      0.270320386     -0.409090906       508.318115     -0.844107270    
 -0.479746491      0.140866295     -0.327272713       611.819336     -0.844107091    
 -0.420626789      0.270320386     -0.327272713       611.819336     -0.844107091    
 -0.420626789      0.270320386     -0.409090906       611.819336     -0.844107091    
 -0.479746491      0.140866295     -0.409090906       611.819336     -0.844107091    
 -0.500000000       2.84000009E-16 -0.327272713       665.755005     -0.844107151    
 -0.479746491      0.140866295     -0.327272713       665.755005     -0.844107151    
 -0.479746491      0.140866295     -0.409090906       665.755005     -0.844107151    
 -0.500000000       2.84000009E-16 -0.409090906       665.755005     -0.844107151    
  0.479746491      0.140866295     -0.409090906       683.254700       2.17832184    
  0.500000000       0.00000000     -0.409090906       683.254700       2.17832184    
  0.500000000       0.00000000     -0.490909100       683.254700       2.17832184    
  0.479746491      0.140866295     -0.490909100       683.254700       2.17832184    
  0.420626789      0.270320386     -0.409090906       627.901184       2.17832208    
  0.479746491      0.140866295     -0.409090906       627.901184       2.17832208    
  0.479746491      0.140866295     -0.490909100       627.901184       2.17832208    
  0.420626789      0.270320386     -0.490909100       627.901184       2.17832208    
  0.327430397      0.377874792     -0.409090906       521.679138       2.17832208    
  0.420626789      0.270320386     -0.409090906       521.679138       2.17832208    
  0.420626789      0.270320386     -0.490909100       521.679138       2.17832208    
  0.327430397      0.377874792     -0.490909100       521.679138       2.17832208    
  0.207707494      0.454816014     -0.409090906       373.193848       2.17832208    
  0.327430397      0.377874792     -0.409090906       373.193848       2.17832208    
  0.327430397      0.377874792     -0.490909100       373.193848       2.17832208    
  0.207707494      0.454816014     -0.490909100       373.193848       2.17832208    
   7.11574182E-02  0.494910687     -0.409090906       194.474518       2.17832184    
  0.207707494      0.454816014     -0.409090906       194.474518       2.17832184    
  0.207707494      0.454816014     -0.490909100       194.474518       2.17832184    
   7.11574182E-02  0.494910687     -0.490909100       194.474518       2.17832184    
  -7.11574182E-02  0.494910687     -0.409090906       5.37034575E-05   2.08566809    
   7.11574182E-02  0.494910687     -0.409090906       5.37034575E-05   2.08566809    
   7.11574182E-02  0.494910687     -0.490909100       5.37034575E-05   2.08566809    
  -7.11574182E-02  0.494910687     -0.490909100       5.37034575E-05   2.08566809    
 -0.207707494      0.454816014     -0.409090906       194.474396     -0.963270545    
  -7.11574182E-02  0.494910687     -0.409090906       194.474396     -0.963270545    
  -7.11574182E-02  0.494910687     -0.490909100       194.474396     -0.963270545    
 -0.207707494      0.454816014     -0.490909100       194.474396     -0.963270545    
 -0.327430397      0.377874792     -0.409090906       373.193787     -0.963270724    
 -0.207707494      0.454816014     -0.409090906       373.193787     -0.963270724    
 -0.207707494      0.454816014     -0.490909100       373.193787     -0.963270724    
 -0.327430397      0.377874792     -0.490909100       373.193787     -0.963270724    
 -0.420626789      0.270320386     -0.409090906       521.679138     -0.963270545    
 -0.327430397      0.377874792     -0.409090906       521.679138     -0.963270545    
 -0.327430397      0.377874792     -0.490909100       521.679138     -0.963270545    
 -0.420626789      0.270320386     -0.490909100       521.679138     -0.963270545    
 -0.479746491      0.140866295     -0.409090906       627.901428     -0.963270843    
 -0.420626789      0.270320386     -0.409090906       627.901428     -0.963270843    
 -0.420626789      0.270320386     -0.490909100       627.901428     -0.963270843    
 -0.479746491      0.140866295     -0.490909100       627.901428     -0.963270843    
 -0.500000000       2.84000009E-16 -0.409090906       683.254578     -0.963270843    
 -0.479746491      0.140866295     -0.409090906       683.254578     -0.963270843    
 -0.479746491      0.140866295     -0.490909100       683.254578     -0.963270843    
 -0.500000000       2.84000009E-16 -0.490909100       683.254578     -0.963270843    
  0.479746491      0.140866295     -0.490909100       709.596313       2.08061218    
  0.500000000       0.00000000     -0.490909100       709.596313       2.08061218    
  0.500000000       0.00000000     -0.572727323       709.596313       2.08061218    
  0.479746491      0.140866295     -0.572727323       709.596313       2.08061218    
  0.420626789      0.270320386     -0.490909100       652.108765       2.08061242    
  0.479746491      0.140866295     -0.490909100       652.108765       2.08061242    
  0.479746491      0.140866295     -0.572727323       652.108765       2.08061242    
  0.420626789      0.270320386     -0.572727323       652.108765       2.08061242    
  0.327430397      0.377874792     -0.490909100       541.791504       2.08061218    
  0.420626789      0.270320386     -0.490909100       541.791504       2.08061218    
  0.420626789      0.270320386     -0.572727323       541.791504       2.08061218    
  0.327430397      0.377874792     -0.572727323       541.791504       2.08061218    
  0.207707494      0.454816014     -0.490909100       387.581787       2.08061194    
  0.327430397      0.377874792     -0.490909100       387.581787       2.08061194    
  0.327430397      0.377874792     -0.572727323       387.581787       2.08061194    
  0.207707494      0.454816014     -0.572727323       387.581787       2.08061194    
   7.11574182E-02  0.494910687     -0.490909100       201.972015       2.08061242    
  0.207707494      0.454816014     -0.490909100       201.972015       2.08061242    
  0.207707494      0.454816014     -0.572727323       201.972015       2.08061242    
   7.11574182E-02  0.494910687     -0.572727323       201.972015       2.08061242    
  -7.11574182E-02  0.494910687     -0.490909100       5.60395274E-05   2.07089448    
   7.11574182E-02  0.494910687     -0.490909100       5.60395274E-05   2.07089448    
   7.11574182E-02  0.494910687     -0.572727323       5.60395274E-05   2.07089448    
  -7.11574182E-02  0.494910687     -0.572727323       5.60395274E-05   2.07089448    
 -0.207707494      0.454816014     -0.490909100       201.971954      -1.06098020    
  -7.11574182E-02  0.494910687     -0.490909100       201.971954      -1.06098020    
  -7.11574182E-02  0.494910687     -0.572727323       201.971954      -1.06098020    
 -0.207707494      0.454816014     -0.572727323       201.971954      -1.06098020    
 -0.327430397      0.377874792     -0.490909100       387.581604      -1.06098068    
 -0.207707494      0.454816014     -0.490909100       387.581604      -1.06098068    
 -0.207707494      0.454816014     -0.572727323       387.581604      -1.06098068    
 -0.327430397      0.377874792     -0.572727323       387.581604      -1.06098068    
 -0.420626789      0.270320386     -0.490909100       541.791443      -1.06098044    
 -0.327430397      0.377874792     -0.490909100       541.791443      -1.06098044    
 -0.327430397      0.377874792     -0.572727323       541.791443      -1.06098044    
 -0.420626789      0.270320386     -0.572727323       541.791443      -1.06098044    
 -0.479746491      0.140866295     -0.490909100       652.108521      -1.06098008    
 -0.420626789      0.270320386     -0.490909100       652.108521      -1.06098008    
 -0.420626789      0.270320386     -0.572727323       652.108521      -1.06098008    
 -0.479746491      0.140866295     -0.572727323       652.108521      -1.06098008    
 -0.500000000       2.84000009E-16 -0.490909100       709.596130      -1.06098056    
 -0.479746491      0.140866295     -0.490909100       709.596130      -1.06098056    
 -0.479746491      0.140866295     -0.572727323       709.596130      -1.06098056    
 -0.500000000       2.84000009E-16 -0.572727323       709.596130      -1.06098056    
  0.479746491      0.140866295     -0.572727323       734.144043       2.00684714    
  0.500000000       0.00000000     -0.572727323       734.144043       2.00684714    
  0.500000000       0.00000000     -0.654545426       734.144043       2.00684714    
  0.479746491      0.140866295     -0.654545426       734.144043       2.00684714    
  0.420626789      0.270320386     -0.572727323       674.667847       2.00684714    
  0.479746491      0.140866295     -0.572727323       674.667847       2.00684714    
  0.479746491      0.140866295     -0.654545426       674.667847       2.00684714    
  0.420626789      0.270320386     -0.654545426       674.667847       2.00684714    
  0.327430397      0.377874792     -0.572727323       560.534180       2.00684690    
  0.420626789      0.270320386     -0.572727323       560.534180       2.00684690    
  0.420626789      0.270320386     -0.654545426       560.534180       2.00684690    
  0.327430397      0.377874792     -0.654545426       560.534180       2.00684690    
  0.207707494      0.454816014     -0.572727323       400.989563       2.00684690    
  0.327430397      0.377874792     -0.572727323       400.989563       2.00684690    
  0.327430397      0.377874792     -0.654545426       400.989563       2.00684690    
  0.207707494      0.454816014     -0.654545426       400.989563       2.00684690    
   7.11574182E-02  0.494910687     -0.572727323       208.959106       2.00684714    
  0.207707494      0.454816014     -0.572727323       208.959106       2.00684714    
  0.207707494      0.454816014     -0.654545426       208.959106       2.00684714    
   7.11574182E-02  0.494910687     -0.654545426       208.959106       2.00684714    
  -7.11574182E-02  0.494910687     -0.572727323       1.60125328E-05   1.89737403    
   7.11574182E-02  0.494910687     -0.572727323       1.60125328E-05   1.89737403    
   7.11574182E-02  0.494910687     -0.654545426       1.60125328E-05   1.89737403    
  -7.11574182E-02  0.494910687     -0.654545426       1.60125328E-05   1.89737403    
 -0.207707494      0.454816014     -0.572727323       208.958923      -1.13474536    
  -7.11574182E-02  0.494910687     -0.572727323       208.958923      -1.13474536    
  -7.11574182E-02  0.494910687     -0.654545426       208.958923      -1.13474536    
 -0.207707494      0.454816014     -0.654545426       208.958923      -1.13474536    
 -0.327430397      0.377874792     -0.572727323       400.989380      -1.13474560    
 -0.207707494      0.454816014     -0.572727323       400.989380      -1.13474560    
 -0.207707494      0.454816014     -0.654545426       400.989380      -1.13474560    
 -0.327430397      0.377874792     -0.654545426       400.989380      -1.13474560    
 -0.420626789      0.270320386     -0.572727323       560.534241      -1.13474560    
 -0.327430397      0.377874792     -0.572727323       560.534241      -1.13474560    
 -0.327430397      0.377874792     -0.654545426       560.534241      -1.13474560    
 -0.420626789      0.270320386     -0.654545426       560.534241      -1.13474560    
 -0.479746491      0.140866295     -0.572727323       674.667908      -1.13474560    
 -0.420626789      0.270320386     -0.572727323       674.667908      -1.13474560    
 -0.420626789      0.270320386     -0.654545426       674.667908      -1.13474560    