 VARIABLES="X" "Y" "Z" "abs(p) (Pa)" "angle(p) (rad)"
ZONE N=   8448,E =    8022, F=FEPOINT, ET=QUADRILATERAL
  0.499932408       8.22369382E-03   0.00000000       1962.62744       2.10518169    
  0.500000000       0.00000000       0.00000000       1962.62744       2.10518169    
  0.500000000       0.00000000      -8.18181783E-02   1962.62744       2.10518169    
  0.499932408       8.22369382E-03  -8.18181783E-02   1962.62744       2.10518169    
  0.499729514       1.64451599E-02   0.00000000       1985.41418       2.10314584    
  0.499932408       8.22369382E-03   0.00000000       1985.41418       2.10314584    
  0.499932408       8.22369382E-03  -8.18181783E-02   1985.41418       2.10314584    
  0.499729514       1.64451599E-02  -8.18181783E-02   1985.41418       2.10314584    
  0.499391407       2.46621799E-02   0.00000000       2007.54785       2.10124373    
  0.499729514       1.64451599E-02   0.00000000       2007.54785       2.10124373    
  0.499729514       1.64451599E-02  -8.18181783E-02   2007.54785       2.10124373    
  0.499391407       2.46621799E-02  -8.18181783E-02   2007.54785       2.10124373    
  0.498918205       3.28725316E-02   0.00000000       2029.01562       2.09946179    
  0.499391407       2.46621799E-02   0.00000000       2029.01562       2.09946179    
  0.499391407       2.46621799E-02  -8.18181783E-02   2029.01562       2.09946179    
  0.498918205       3.28725316E-02  -8.18181783E-02   2029.01562       2.09946179    
  0.498310089       4.10739891E-02   0.00000000       2049.81030       2.09779954    
  0.498918205       3.28725316E-02   0.00000000       2049.81030       2.09779954    
  0.498918205       3.28725316E-02  -8.18181783E-02   2049.81030       2.09779954    
  0.498310089       4.10739891E-02  -8.18181783E-02   2049.81030       2.09779954    
  0.497567087       4.92643304E-02   0.00000000       2069.92456       2.09624314    
  0.498310089       4.10739891E-02   0.00000000       2069.92456       2.09624314    
  0.498310089       4.10739891E-02  -8.18181783E-02   2069.92456       2.09624314    
  0.497567087       4.92643304E-02  -8.18181783E-02   2069.92456       2.09624314    
  0.496689498       5.74413389E-02   0.00000000       2089.35278       2.09478760    
  0.497567087       4.92643304E-02   0.00000000       2089.35278       2.09478760    
  0.497567087       4.92643304E-02  -8.18181783E-02   2089.35278       2.09478760    
  0.496689498       5.74413389E-02  -8.18181783E-02   2089.35278       2.09478760    
  0.495677590       6.56028166E-02   0.00000000       2108.08325       2.09343052    
  0.496689498       5.74413389E-02   0.00000000       2108.08325       2.09343052    
  0.496689498       5.74413389E-02  -8.18181783E-02   2108.08325       2.09343052    
  0.495677590       6.56028166E-02  -8.18181783E-02   2108.08325       2.09343052    
  0.494531512       7.37465471E-02   0.00000000       2126.11328       2.09216380    
  0.495677590       6.56028166E-02   0.00000000       2126.11328       2.09216380    
  0.495677590       6.56028166E-02  -8.18181783E-02   2126.11328       2.09216380    
  0.494531512       7.37465471E-02  -8.18181783E-02   2126.11328       2.09216380    
  0.493251711       8.18703175E-02   0.00000000       2143.43286       2.09098387    
  0.494531512       7.37465471E-02   0.00000000       2143.43286       2.09098387    
  0.494531512       7.37465471E-02  -8.18181783E-02   2143.43286       2.09098387    
  0.493251711       8.18703175E-02  -8.18181783E-02   2143.43286       2.09098387    
  0.491838396       8.99719521E-02   0.00000000       2160.04028       2.08988380    
  0.493251711       8.18703175E-02   0.00000000       2160.04028       2.08988380    
  0.493251711       8.18703175E-02  -8.18181783E-02   2160.04028       2.08988380    
  0.491838396       8.99719521E-02  -8.18181783E-02   2160.04028       2.08988380    
  0.490292102       9.80492383E-02   0.00000000       2175.92944       2.08885908    
  0.491838396       8.99719521E-02   0.00000000       2175.92944       2.08885908    
  0.491838396       8.99719521E-02  -8.18181783E-02   2175.92944       2.08885908    
  0.490292102       9.80492383E-02  -8.18181783E-02   2175.92944       2.08885908    
  0.488613099      0.106100000       0.00000000       2191.08594       2.08790708    
  0.490292102       9.80492383E-02   0.00000000       2191.08594       2.08790708    
  0.490292102       9.80492383E-02  -8.18181783E-02   2191.08594       2.08790708    
  0.488613099      0.106100000      -8.18181783E-02   2191.08594       2.08790708    
  0.486802012      0.114122100       0.00000000       2205.51196       2.08702445    
  0.488613099      0.106100000       0.00000000       2205.51196       2.08702445    
  0.488613099      0.106100000      -8.18181783E-02   2205.51196       2.08702445    
  0.486802012      0.114122100      -8.18181783E-02   2205.51196       2.08702445    
  0.484859109      0.122113198       0.00000000       2219.19824       2.08621073    
  0.486802012      0.114122100       0.00000000       2219.19824       2.08621073    
  0.486802012      0.114122100      -8.18181783E-02   2219.19824       2.08621073    
  0.484859109      0.122113198      -8.18181783E-02   2219.19824       2.08621073    
  0.482785106      0.130071402       0.00000000       2232.14941       2.08545637    
  0.484859109      0.122113198       0.00000000       2232.14941       2.08545637    
  0.484859109      0.122113198      -8.18181783E-02   2232.14941       2.08545637    
  0.482785106      0.130071402      -8.18181783E-02   2232.14941       2.08545637    
  0.480580389      0.137994304       0.00000000       2244.34961       2.08475757    
  0.482785106      0.130071402       0.00000000       2244.34961       2.08475757    
  0.482785106      0.130071402      -8.18181783E-02   2244.34961       2.08475757    
  0.480580389      0.137994304      -8.18181783E-02   2244.34961       2.08475757    
  0.478245795      0.145879999       0.00000000       2255.79224       2.08411765    
  0.480580389      0.137994304       0.00000000       2255.79224       2.08411765    
  0.480580389      0.137994304      -8.18181783E-02   2255.79224       2.08411765    
  0.478245795      0.145879999      -8.18181783E-02   2255.79224       2.08411765    
  0.475781709      0.153726101       0.00000000       2266.50073       2.08353114    
  0.478245795      0.145879999       0.00000000       2266.50073       2.08353114    
  0.478245795      0.145879999      -8.18181783E-02   2266.50073       2.08353114    
  0.475781709      0.153726101      -8.18181783E-02   2266.50073       2.08353114    
  0.473188996      0.161530703       0.00000000       2276.44165       2.08299541    
  0.475781709      0.153726101       0.00000000       2276.44165       2.08299541    
  0.475781709      0.153726101      -8.18181783E-02   2276.44165       2.08299541    
  0.473188996      0.161530703      -8.18181783E-02   2276.44165       2.08299541    
  0.470468193      0.169291601       0.00000000       2285.60938       2.08251190    
  0.473188996      0.161530703       0.00000000       2285.60938       2.08251190    
  0.473188996      0.161530703      -8.18181783E-02   2285.60938       2.08251190    
  0.470468193      0.169291601      -8.18181783E-02   2285.60938       2.08251190    
  0.467620194      0.177006602       0.00000000       2294.01660       2.08207154    
  0.470468193      0.169291601       0.00000000       2294.01660       2.08207154    
  0.470468193      0.169291601      -8.18181783E-02   2294.01660       2.08207154    
  0.467620194      0.177006602      -8.18181783E-02   2294.01660       2.08207154    
  0.464645714      0.184673801       0.00000000       2301.66748       2.08167911    
  0.467620194      0.177006602       0.00000000       2301.66748       2.08167911    
  0.467620194      0.177006602      -8.18181783E-02   2301.66748       2.08167911    
  0.464645714      0.184673801      -8.18181783E-02   2301.66748       2.08167911    
  0.461545408      0.192291096       0.00000000       2308.53418       2.08133411    
  0.464645714      0.184673801       0.00000000       2308.53418       2.08133411    
  0.464645714      0.184673801      -8.18181783E-02   2308.53418       2.08133411    
  0.461545408      0.192291096      -8.18181783E-02   2308.53418       2.08133411    
  0.458320290      0.199856296       0.00000000       2314.63989       2.08102441    
  0.461545408      0.192291096       0.00000000       2314.63989       2.08102441    
  0.461545408      0.192291096      -8.18181783E-02   2314.63989       2.08102441    
  0.458320290      0.199856296      -8.18181783E-02   2314.63989       2.08102441    
  0.454971194      0.207367405       0.00000000       2319.96973       2.08076096    
  0.458320290      0.199856296       0.00000000       2319.96973       2.08076096    
  0.458320290      0.199856296      -8.18181783E-02   2319.96973       2.08076096    
  0.454971194      0.207367405      -8.18181783E-02   2319.96973       2.08076096    
  0.451498985      0.214822397       0.00000000       2324.51416       2.08054209    
  0.454971194      0.207367405       0.00000000       2324.51416       2.08054209    
  0.454971194      0.207367405      -8.18181783E-02   2324.51416       2.08054209    
  0.451498985      0.214822397      -8.18181783E-02   2324.51416       2.08054209    
  0.447904587      0.222219393       0.00000000       2328.29272       2.08035660    
  0.451498985      0.214822397       0.00000000       2328.29272       2.08035660    
  0.451498985      0.214822397      -8.18181783E-02   2328.29272       2.08035660    
  0.447904587      0.222219393      -8.18181783E-02   2328.29272       2.08035660    
  0.444189101      0.229556203       0.00000000       2331.28540       2.08020949    
  0.447904587      0.222219393       0.00000000       2331.28540       2.08020949    
  0.447904587      0.222219393      -8.18181783E-02   2331.28540       2.08020949    
  0.444189101      0.229556203      -8.18181783E-02   2331.28540       2.08020949    
  0.440353394      0.236830905       0.00000000       2333.50122       2.08010364    
  0.444189101      0.229556203       0.00000000       2333.50122       2.08010364    
  0.444189101      0.229556203      -8.18181783E-02   2333.50122       2.08010364    
  0.440353394      0.236830905      -8.18181783E-02   2333.50122       2.08010364    
  0.436398596      0.244041502       0.00000000       2334.92676       2.08003211    
  0.440353394      0.236830905       0.00000000       2334.92676       2.08003211    
  0.440353394      0.236830905      -8.18181783E-02   2334.92676       2.08003211    
  0.436398596      0.244041502      -8.18181783E-02   2334.92676       2.08003211    
  0.432325810      0.251186103       0.00000000       2335.58179       2.07999992    
  0.436398596      0.244041502       0.00000000       2335.58179       2.07999992    
  0.436398596      0.244041502      -8.18181783E-02   2335.58179       2.07999992    
  0.432325810      0.251186103      -8.18181783E-02   2335.58179       2.07999992    
  0.428135902      0.258262813       0.00000000       2335.44385       2.08001089    
  0.432325810      0.251186103       0.00000000       2335.44385       2.08001089    
  0.432325810      0.251186103      -8.18181783E-02   2335.44385       2.08001089    
  0.428135902      0.258262813      -8.18181783E-02   2335.44385       2.08001089    
  0.423830211      0.265269488       0.00000000       2334.53931       2.08005214    
  0.428135902      0.258262813       0.00000000       2334.53931       2.08005214    
  0.428135902      0.258262813      -8.18181783E-02   2334.53931       2.08005214    
  0.423830211      0.265269488      -8.18181783E-02   2334.53931       2.08005214    
  0.419409901      0.272204489       0.00000000       2332.84570       2.08013320    
  0.423830211      0.265269488       0.00000000       2332.84570       2.08013320    
  0.423830211      0.265269488      -8.18181783E-02   2332.84570       2.08013320    
  0.419409901      0.272204489      -8.18181783E-02   2332.84570       2.08013320    
  0.414876103      0.279065907       0.00000000       2330.37598       2.08025193    
  0.419409901      0.272204489       0.00000000       2330.37598       2.08025193    
  0.419409901      0.272204489      -8.18181783E-02   2330.37598       2.08025193    
  0.414876103      0.279065907      -8.18181783E-02   2330.37598       2.08025193    
  0.410230100      0.285851806       0.00000000       2327.11401       2.08041239    
  0.414876103      0.279065907       0.00000000       2327.11401       2.08041239    
  0.414876103      0.279065907      -8.18181783E-02   2327.11401       2.08041239    
  0.410230100      0.285851806      -8.18181783E-02   2327.11401       2.08041239    
  0.405473113      0.292560399       0.00000000       2323.08862       2.08060908    
  0.410230100      0.285851806       0.00000000       2323.08862       2.08060908    
  0.410230100      0.285851806      -8.18181783E-02   2323.08862       2.08060908    
  0.405473113      0.292560399      -8.18181783E-02   2323.08862       2.08060908    
  0.400606394      0.299189687       0.00000000       2318.28125       2.08084536    
  0.405473113      0.292560399       0.00000000       2318.28125       2.08084536    
  0.405473113      0.292560399      -8.18181783E-02   2318.28125       2.08084536    
  0.400606394      0.299189687      -8.18181783E-02   2318.28125       2.08084536    
  0.395631313      0.305738211       0.00000000       2312.68799       2.08112407    
  0.400606394      0.299189687       0.00000000       2312.68799       2.08112407    
  0.400606394      0.299189687      -8.18181783E-02   2312.68799       2.08112407    
  0.395631313      0.305738211      -8.18181783E-02   2312.68799       2.08112407    
  0.390549213      0.312204003       0.00000000       2306.32544       2.08144498    
  0.395631313      0.305738211       0.00000000       2306.32544       2.08144498    
  0.395631313      0.305738211      -8.18181783E-02   2306.32544       2.08144498    
  0.390549213      0.312204003      -8.18181783E-02   2306.32544       2.08144498    
  0.385361403      0.318585187       0.00000000       2299.19922       2.08180642    
  0.390549213      0.312204003       0.00000000       2299.19922       2.08180642    
  0.390549213      0.312204003      -8.18181783E-02   2299.19922       2.08180642    
  0.385361403      0.318585187      -8.18181783E-02   2299.19922       2.08180642    
  0.380069405      0.324880302       0.00000000       2291.30640       2.08221436    
  0.385361403      0.318585187       0.00000000       2291.30640       2.08221436    
  0.385361403      0.318585187      -8.18181783E-02   2291.30640       2.08221436    
  0.380069405      0.324880302      -8.18181783E-02   2291.30640       2.08221436    
  0.374674588      0.331087500       0.00000000       2282.63110       2.08266687    
  0.380069405      0.324880302       0.00000000       2282.63110       2.08266687    
  0.380069405      0.324880302      -8.18181783E-02   2282.63110       2.08266687    
  0.374674588      0.331087500      -8.18181783E-02   2282.63110       2.08266687    
  0.369178414      0.337205201       0.00000000       2273.19971       2.08317018    
  0.374674588      0.331087500       0.00000000       2273.19971       2.08317018    
  0.374674588      0.331087500      -8.18181783E-02   2273.19971       2.08317018    
  0.369178414      0.337205201      -8.18181783E-02   2273.19971       2.08317018    
  0.363582313      0.343231589       0.00000000       2263.01489       2.08371925    
  0.369178414      0.337205201       0.00000000       2263.01489       2.08371925    
  0.369178414      0.337205201      -8.18181783E-02   2263.01489       2.08371925    
  0.363582313      0.343231589      -8.18181783E-02   2263.01489       2.08371925    
  0.357887805      0.349165112       0.00000000       2252.07666       2.08432174    
  0.363582313      0.343231589       0.00000000       2252.07666       2.08432174    
  0.363582313      0.343231589      -8.18181783E-02   2252.07666       2.08432174    
  0.357887805      0.349165112      -8.18181783E-02   2252.07666       2.08432174    
  0.352096587      0.355004191       0.00000000       2240.37109       2.08498263    
  0.357887805      0.349165112       0.00000000       2240.37109       2.08498263    
  0.357887805      0.349165112      -8.18181783E-02   2240.37109       2.08498263    
  0.352096587      0.355004191      -8.18181783E-02   2240.37109       2.08498263    
  0.346210092      0.360747308       0.00000000       2227.91479       2.08569932    
  0.352096587      0.355004191       0.00000000       2227.91479       2.08569932    
  0.352096587      0.355004191      -8.18181783E-02   2227.91479       2.08569932    
  0.346210092      0.360747308      -8.18181783E-02   2227.91479       2.08569932    
  0.340229899      0.366392702       0.00000000       2214.71802       2.08647227    
  0.346210092      0.360747308       0.00000000       2214.71802       2.08647227    
  0.346210092      0.360747308      -8.18181783E-02   2214.71802       2.08647227    
  0.340229899      0.366392702      -8.18181783E-02   2214.71802       2.08647227    
  0.334157586      0.371939093       0.00000000       2200.78418       2.08731031    
  0.340229899      0.366392702       0.00000000       2200.78418       2.08731031    
  0.340229899      0.366392702      -8.18181783E-02   2200.78418       2.08731031    
  0.334157586      0.371939093      -8.18181783E-02   2200.78418       2.08731031    
  0.327995002      0.377384812       0.00000000       2186.10986       2.08821726    
  0.334157586      0.371939093       0.00000000       2186.10986       2.08821726    
  0.334157586      0.371939093      -8.18181783E-02   2186.10986       2.08821726    
  0.327995002      0.377384812      -8.18181783E-02   2186.10986       2.08821726    
  0.321743697      0.382728398       0.00000000       2170.70996       2.08919334    
  0.327995002      0.377384812       0.00000000       2170.70996       2.08919334    
  0.327995002      0.377384812      -8.18181783E-02   2170.70996       2.08919334    
  0.321743697      0.382728398      -8.18181783E-02   2170.70996       2.08919334    
  0.315405309      0.387968510       0.00000000       2154.59424       2.09023881    
  0.321743697      0.382728398       0.00000000       2154.59424       2.09023881    
  0.321743697      0.382728398      -8.18181783E-02   2154.59424       2.09023881    
  0.315405309      0.387968510      -8.18181783E-02   2154.59424       2.09023881    
  0.308981508      0.393103600       0.00000000       2137.74707       2.09136295    
  0.315405309      0.387968510       0.00000000       2137.74707       2.09136295    
  0.315405309      0.387968510      -8.18181783E-02   2137.74707       2.09136295    
  0.308981508      0.393103600      -8.18181783E-02   2137.74707       2.09136295    
  0.302474201      0.398132294       0.00000000       2120.18433       2.09257674    
  0.308981508      0.393103600       0.00000000       2120.18433       2.09257674    
  0.308981508      0.393103600      -8.18181783E-02   2120.18433       2.09257674    
  0.302474201      0.398132294      -8.18181783E-02   2120.18433       2.09257674    
  0.295885086      0.403053403       0.00000000       2101.91699       2.09387445    
  0.302474201      0.398132294       0.00000000       2101.91699       2.09387445    
  0.302474201      0.398132294      -8.18181783E-02   2101.91699       2.09387445    
  0.295885086      0.403053403      -8.18181783E-02   2101.91699       2.09387445    
  0.289215893      0.407865405       0.00000000       2082.96118       2.09525919    
  0.295885086      0.403053403       0.00000000       2082.96118       2.09525919    
  0.295885086      0.403053403      -8.18181783E-02   2082.96118       2.09525919    
  0.289215893      0.407865405      -8.18181783E-02   2082.96118       2.09525919    
  0.282468408      0.412567109       0.00000000       2063.30005       2.09674883    
  0.289215893      0.407865405       0.00000000       2063.30005       2.09674883    
  0.289215893      0.407865405      -8.18181783E-02   2063.30005       2.09674883    
  0.282468408      0.412567109      -8.18181783E-02   2063.30005       2.09674883    
  0.275644600      0.417157114       0.00000000       2042.95959       2.09834051    
  0.282468408      0.412567109       0.00000000       2042.95959       2.09834051    
  0.282468408      0.412567109      -8.18181783E-02   2042.95959       2.09834051    
  0.275644600      0.417157114      -8.18181783E-02   2042.95959       2.09834051    
  0.268746108      0.421634287       0.00000000       2021.94067       2.10004282    
  0.275644600      0.417157114       0.00000000       2021.94067       2.10004282    
  0.275644600      0.417157114      -8.18181783E-02   2021.94067       2.10004282    
  0.268746108      0.421634287      -8.18181783E-02   2021.94067       2.10004282    
  0.261774987      0.425997496       0.00000000       2000.24341       2.10186648    
  0.268746108      0.421634287       0.00000000       2000.24341       2.10186648    
  0.268746108      0.421634287      -8.18181783E-02   2000.24341       2.10186648    
  0.261774987      0.425997496      -8.18181783E-02   2000.24341       2.10186648    
  0.254733086      0.430245399       0.00000000       1977.89624       2.10380888    
  0.261774987      0.425997496       0.00000000       1977.89624       2.10380888    
  0.261774987      0.425997496      -8.18181783E-02   1977.89624       2.10380888    
  0.254733086      0.430245399      -8.18181783E-02   1977.89624       2.10380888    
  0.247622207      0.434376895       0.00000000       1954.89038       2.10588861    
  0.254733086      0.430245399       0.00000000       1954.89038       2.10588861    
  0.254733086      0.430245399      -8.18181783E-02   1954.89038       2.10588861    
  0.247622207      0.434376895      -8.18181783E-02   1954.89038       2.10588861    
  0.240444303      0.438390911       0.00000000       1931.23950       2.10811234    
  0.247622207      0.434376895       0.00000000       1931.23950       2.10811234    
  0.247622207      0.434376895      -8.18181783E-02   1931.23950       2.10811234    
  0.240444303      0.438390911      -8.18181783E-02   1931.23950       2.10811234    
  0.233201399      0.442286193       0.00000000       1906.95496       2.11048770    
  0.240444303      0.438390911       0.00000000       1906.95496       2.11048770    
  0.240444303      0.438390911      -8.18181783E-02   1906.95496       2.11048770    
  0.233201399      0.442286193      -8.18181783E-02   1906.95496       2.11048770    
  0.225895405      0.446061909       0.00000000       1882.04663       2.11302328    
  0.233201399      0.442286193       0.00000000       1882.04663       2.11302328    
  0.233201399      0.442286193      -8.18181783E-02   1882.04663       2.11302328    
  0.225895405      0.446061909      -8.18181783E-02   1882.04663       2.11302328    
  0.218528301      0.449716985       0.00000000       1856.52649       2.11573577    
  0.225895405      0.446061909       0.00000000       1856.52649       2.11573577    
  0.225895405      0.446061909      -8.18181783E-02   1856.52649       2.11573577    
  0.218528301      0.449716985      -8.18181783E-02   1856.52649       2.11573577    
  0.211102098      0.453250408       0.00000000       1830.40991       2.11863160    
  0.218528301      0.449716985       0.00000000       1830.40991       2.11863160    
  0.218528301      0.449716985      -8.18181783E-02   1830.40991       2.11863160    
  0.211102098      0.453250408      -8.18181783E-02   1830.40991       2.11863160    
  0.203618705      0.456661195       0.00000000       1803.68958       2.12172508    
  0.211102098      0.453250408       0.00000000       1803.68958       2.12172508    
  0.211102098      0.453250408      -8.18181783E-02   1803.68958       2.12172508    
  0.203618705      0.456661195      -8.18181783E-02   1803.68958       2.12172508    
  0.196080297      0.459948391       0.00000000       1776.39343       2.12503362    
  0.203618705      0.456661195       0.00000000       1776.39343       2.12503362    
  0.203618705      0.456661195      -8.18181783E-02   1776.39343       2.12503362    
  0.196080297      0.459948391      -8.18181783E-02   1776.39343       2.12503362    
  0.188488796      0.463111192       0.00000000       1748.52759       2.12857437    
  0.196080297      0.459948391       0.00000000       1748.52759       2.12857437    
  0.196080297      0.459948391      -8.18181783E-02   1748.52759       2.12857437    
  0.188488796      0.463111192      -8.18181783E-02   1748.52759       2.12857437    
  0.180846393      0.466148704       0.00000000       1720.11011       2.13235545    
  0.188488796      0.463111192       0.00000000       1720.11011       2.13235545    
  0.188488796      0.463111192      -8.18181783E-02   1720.11011       2.13235545    
  0.180846393      0.466148704      -8.18181783E-02   1720.11011       2.13235545    
  0.173154995      0.469060093       0.00000000       1691.14966       2.13640070    
  0.180846393      0.466148704       0.00000000       1691.14966       2.13640070    
  0.180846393      0.466148704      -8.18181783E-02   1691.14966       2.13640070    
  0.173154995      0.469060093      -8.18181783E-02   1691.14966       2.13640070    
  0.165416703      0.471844614       0.00000000       1661.66931       2.14072943    
  0.173154995      0.469060093       0.00000000       1661.66931       2.14072943    
  0.173154995      0.469060093      -8.18181783E-02   1661.66931       2.14072943    
  0.165416703      0.471844614      -8.18181783E-02   1661.66931       2.14072943    
  0.157633796      0.474501401       0.00000000       1631.66650       2.14536333    
  0.165416703      0.471844614       0.00000000       1631.66650       2.14536333    
  0.165416703      0.471844614      -8.18181783E-02   1631.66650       2.14536333    
  0.157633796      0.474501401      -8.18181783E-02   1631.66650       2.14536333    
  0.149808094      0.477029890       0.00000000       1601.16858       2.15032721    
  0.157633796      0.474501401       0.00000000       1601.16858       2.15032721    
  0.157633796      0.474501401      -8.18181783E-02   1601.16858       2.15032721    
  0.149808094      0.477029890      -8.18181783E-02   1601.16858       2.15032721    
  0.141941994      0.479429305       0.00000000       1570.19727       2.15564823    
  0.149808094      0.477029890       0.00000000       1570.19727       2.15564823    
  0.149808094      0.477029890      -8.18181783E-02   1570.19727       2.15564823    
  0.141941994      0.479429305      -8.18181783E-02   1570.19727       2.15564823    
  0.134037405      0.481698990       0.00000000       1538.76147       2.16134501    
  0.141941994      0.479429305       0.00000000       1538.76147       2.16134501    
  0.141941994      0.479429305      -8.18181783E-02   1538.76147       2.16134501    
  0.134037405      0.481698990      -8.18181783E-02   1538.76147       2.16134501    
  0.126096606      0.483838499       0.00000000       1506.88257       2.16746211    
  0.134037405      0.481698990       0.00000000       1506.88257       2.16746211    
  0.134037405      0.481698990      -8.18181783E-02   1506.88257       2.16746211    
  0.126096606      0.483838499      -8.18181783E-02   1506.88257       2.16746211    
  0.118121602      0.485846996       0.00000000       1474.57703       2.17402864    
  0.126096606      0.483838499       0.00000000       1474.57703       2.17402864    
  0.126096606      0.483838499      -8.18181783E-02   1474.57703       2.17402864    
  0.118121602      0.485846996      -8.18181783E-02   1474.57703       2.17402864    
  0.110114798      0.487724006       0.00000000       1441.87000       2.18107796    
  0.118121602      0.485846996       0.00000000       1441.87000       2.18107796    
  0.118121602      0.485846996      -8.18181783E-02   1441.87000       2.18107796    
  0.110114798      0.487724006      -8.18181783E-02   1441.87000       2.18107796    
  0.102078103      0.489469200       0.00000000       1408.78577       2.18866134    
  0.110114798      0.487724006       0.00000000       1408.78577       2.18866134    
  0.110114798      0.487724006      -8.18181783E-02   1408.78577       2.18866134    
  0.102078103      0.489469200      -8.18181783E-02   1408.78577       2.18866134    
   9.40137729E-02  0.491081893       0.00000000       1375.34338       2.19681954    
  0.102078103      0.489469200       0.00000000       1375.34338       2.19681954    
  0.102078103      0.489469200      -8.18181783E-02   1375.34338       2.19681954    
   9.40137729E-02  0.491081893      -8.18181783E-02   1375.34338       2.19681954    
   8.59240368E-02  0.492561698       0.00000000       1341.56335       2.20560288    
   9.40137729E-02  0.491081893       0.00000000       1341.56335       2.20560288    
   9.40137729E-02  0.491081893      -8.18181783E-02   1341.56335       2.20560288    
   8.59240368E-02  0.492561698      -8.18181783E-02   1341.56335       2.20560288    
   7.78110623E-02  0.493908286       0.00000000       1307.48584       2.21507168    
   8.59240368E-02  0.492561698       0.00000000       1307.48584       2.21507168    
   8.59240368E-02  0.492561698      -8.18181783E-02   1307.48584       2.21507168    
   7.78110623E-02  0.493908286      -8.18181783E-02   1307.48584       2.21507168    
   6.96770400E-02  0.495121300       0.00000000       1273.13123       2.22528958    
   7.78110623E-02  0.493908286       0.00000000       1273.13123       2.22528958    
   7.78110623E-02  0.493908286      -8.18181783E-02   1273.13123       2.22528958    