 VARIABLES="X" "Y" "Z" "abs(p) (Pa)" "angle(p) (rad)"
ZONE N=    528,E =     462, F=FEPOINT, ET=QUADRILATERAL
  0.479746491      0.140866295       0.00000000       2177.56470      -2.92205286    
  0.500000000       0.00000000       0.00000000       2177.56470      -2.92205286    
  0.500000000       0.00000000      -8.18181783E-02   2177.56470      -2.92205286    
  0.479746491      0.140866295      -8.18181783E-02   2177.56470      -2.92205286    
  0.420626789      0.270320386       0.00000000       6356.28076      -2.92205286    
  0.479746491      0.140866295       0.00000000       6356.28076      -2.92205286    
  0.479746491      0.140866295      -8.18181783E-02   6356.28076      -2.92205286    
  0.420626789      0.270320386      -8.18181783E-02   6356.28076      -2.92205286    
  0.327430397      0.377874792       0.00000000       10020.0498      -2.92205215    
  0.420626789      0.270320386       0.00000000       10020.0498      -2.92205215    
  0.420626789      0.270320386      -8.18181783E-02   10020.0498      -2.92205215    
  0.327430397      0.377874792      -8.18181783E-02   10020.0498      -2.92205215    
  0.207707494      0.454816014       0.00000000       12872.0557      -2.92205119    
  0.327430397      0.377874792       0.00000000       12872.0557      -2.92205119    
  0.327430397      0.377874792      -8.18181783E-02   12872.0557      -2.92205119    
  0.207707494      0.454816014      -8.18181783E-02   12872.0557      -2.92205119    
   7.11574182E-02  0.494910687       0.00000000       14681.2490      -2.92205119    
  0.207707494      0.454816014       0.00000000       14681.2490      -2.92205119    
  0.207707494      0.454816014      -8.18181783E-02   14681.2490      -2.92205119    
   7.11574182E-02  0.494910687      -8.18181783E-02   14681.2490      -2.92205119    
  -7.11574182E-02  0.494910687       0.00000000       15301.0625      -2.92205095    
   7.11574182E-02  0.494910687       0.00000000       15301.0625      -2.92205095    
   7.11574182E-02  0.494910687      -8.18181783E-02   15301.0625      -2.92205095    
  -7.11574182E-02  0.494910687      -8.18181783E-02   15301.0625      -2.92205095    
 -0.207707494      0.454816014       0.00000000       14681.2520      -2.92205119    
  -7.11574182E-02  0.494910687       0.00000000       14681.2520      -2.92205119    
  -7.11574182E-02  0.494910687      -8.18181783E-02   14681.2520      -2.92205119    
 -0.207707494      0.454816014      -8.18181783E-02   14681.2520      -2.92205119    
 -0.327430397      0.377874792       0.00000000       12872.0576      -2.92205191    
 -0.207707494      0.454816014       0.00000000       12872.0576      -2.92205191    
 -0.207707494      0.454816014      -8.18181783E-02   12872.0576      -2.92205191    
 -0.327430397      0.377874792      -8.18181783E-02   12872.0576      -2.92205191    
 -0.420626789      0.270320386       0.00000000       10020.0547      -2.92205286    
 -0.327430397      0.377874792       0.00000000       10020.0547      -2.92205286    
 -0.327430397      0.377874792      -8.18181783E-02   10020.0547      -2.92205286    
 -0.420626789      0.270320386      -8.18181783E-02   10020.0547      -2.92205286    
 -0.479746491      0.140866295       0.00000000       6356.28516      -2.92205334    
 -0.420626789      0.270320386       0.00000000       6356.28516      -2.92205334    
 -0.420626789      0.270320386      -8.18181783E-02   6356.28516      -2.92205334    
 -0.479746491      0.140866295      -8.18181783E-02   6356.28516      -2.92205334    
 -0.500000000       2.84000009E-16   0.00000000       2177.56592      -2.92205358    
 -0.479746491      0.140866295       0.00000000       2177.56592      -2.92205358    
 -0.479746491      0.140866295      -8.18181783E-02   2177.56592      -2.92205358    
 -0.500000000       2.84000009E-16  -8.18181783E-02   2177.56592      -2.92205358    
  0.479746491      0.140866295      -8.18181783E-02   1216.75830       2.99437404    
  0.500000000       0.00000000      -8.18181783E-02   1216.75830       2.99437404    
  0.500000000       0.00000000     -0.163636401       1216.75830       2.99437404    
  0.479746491      0.140866295     -0.163636401       1216.75830       2.99437404    
  0.420626789      0.270320386      -8.18181783E-02   3551.69678       2.99437356    
  0.479746491      0.140866295      -8.18181783E-02   3551.69678       2.99437356    
  0.479746491      0.140866295     -0.163636401       3551.69678       2.99437356    
  0.420626789      0.270320386     -0.163636401       3551.69678       2.99437356    
  0.327430397      0.377874792      -8.18181783E-02   5598.90186       2.99437380    
  0.420626789      0.270320386      -8.18181783E-02   5598.90186       2.99437380    
  0.420626789      0.270320386     -0.163636401       5598.90186       2.99437380    
  0.327430397      0.377874792     -0.163636401       5598.90186       2.99437380    
  0.207707494      0.454816014      -8.18181783E-02   7192.51807       2.99437523    
  0.327430397      0.377874792      -8.18181783E-02   7192.51807       2.99437523    
  0.327430397      0.377874792     -0.163636401       7192.51807       2.99437523    
  0.207707494      0.454816014     -0.163636401       7192.51807       2.99437523    
   7.11574182E-02  0.494910687      -8.18181783E-02   8203.43555       2.99437618    
  0.207707494      0.454816014      -8.18181783E-02   8203.43555       2.99437618    
  0.207707494      0.454816014     -0.163636401       8203.43555       2.99437618    
   7.11574182E-02  0.494910687     -0.163636401       8203.43555       2.99437618    
  -7.11574182E-02  0.494910687      -8.18181783E-02   8549.75195       2.99437618    
   7.11574182E-02  0.494910687      -8.18181783E-02   8549.75195       2.99437618    
   7.11574182E-02  0.494910687     -0.163636401       8549.75195       2.99437618    
  -7.11574182E-02  0.494910687     -0.163636401       8549.75195       2.99437618    
 -0.207707494      0.454816014      -8.18181783E-02   8203.43652       2.99437594    
  -7.11574182E-02  0.494910687      -8.18181783E-02   8203.43652       2.99437594    
  -7.11574182E-02  0.494910687     -0.163636401       8203.43652       2.99437594    
 -0.207707494      0.454816014     -0.163636401       8203.43652       2.99437594    
 -0.327430397      0.377874792      -8.18181783E-02   7192.51904       2.99437451    
 -0.207707494      0.454816014      -8.18181783E-02   7192.51904       2.99437451    
 -0.207707494      0.454816014     -0.163636401       7192.51904       2.99437451    
 -0.327430397      0.377874792     -0.163636401       7192.51904       2.99437451    
 -0.420626789      0.270320386      -8.18181783E-02   5598.90479       2.99437356    
 -0.327430397      0.377874792      -8.18181783E-02   5598.90479       2.99437356    
 -0.327430397      0.377874792     -0.163636401       5598.90479       2.99437356    
 -0.420626789      0.270320386     -0.163636401       5598.90479       2.99437356    
 -0.479746491      0.140866295      -8.18181783E-02   3551.69946       2.99437356    
 -0.420626789      0.270320386      -8.18181783E-02   3551.69946       2.99437356    
 -0.420626789      0.270320386     -0.163636401       3551.69946       2.99437356    
 -0.479746491      0.140866295     -0.163636401       3551.69946       2.99437356    
 -0.500000000       2.84000009E-16  -8.18181783E-02   1216.76013       2.99437284    
 -0.479746491      0.140866295      -8.18181783E-02   1216.76013       2.99437284    
 -0.479746491      0.140866295     -0.163636401       1216.76013       2.99437284    
 -0.500000000       2.84000009E-16 -0.163636401       1216.76013       2.99437284    
  0.479746491      0.140866295     -0.163636401       1045.59558       2.28874922    
  0.500000000       0.00000000     -0.163636401       1045.59558       2.28874922    
  0.500000000       0.00000000     -0.245454505       1045.59558       2.28874922    
  0.479746491      0.140866295     -0.245454505       1045.59558       2.28874922    
  0.420626789      0.270320386     -0.163636401       3052.07739       2.28874993    
  0.479746491      0.140866295     -0.163636401       3052.07739       2.28874993    
  0.479746491      0.140866295     -0.245454505       3052.07739       2.28874993    
  0.420626789      0.270320386     -0.245454505       3052.07739       2.28874993    
  0.327430397      0.377874792     -0.163636401       4811.29346       2.28875065    
  0.420626789      0.270320386     -0.163636401       4811.29346       2.28875065    
  0.420626789      0.270320386     -0.245454505       4811.29346       2.28875065    
  0.327430397      0.377874792     -0.245454505       4811.29346       2.28875065    
  0.207707494      0.454816014     -0.163636401       6180.72607       2.28875113    
  0.327430397      0.377874792     -0.163636401       6180.72607       2.28875113    
  0.327430397      0.377874792     -0.245454505       6180.72607       2.28875113    
  0.207707494      0.454816014     -0.245454505       6180.72607       2.28875113    
   7.11574182E-02  0.494910687     -0.163636401       7049.43555       2.28875065    
  0.207707494      0.454816014     -0.163636401       7049.43555       2.28875065    
  0.207707494      0.454816014     -0.245454505       7049.43555       2.28875065    
   7.11574182E-02  0.494910687     -0.245454505       7049.43555       2.28875065    
  -7.11574182E-02  0.494910687     -0.163636401       7347.04492       2.28875113    
   7.11574182E-02  0.494910687     -0.163636401       7347.04492       2.28875113    
   7.11574182E-02  0.494910687     -0.245454505       7347.04492       2.28875113    
  -7.11574182E-02  0.494910687     -0.245454505       7347.04492       2.28875113    
 -0.207707494      0.454816014     -0.163636401       7049.43799       2.28875065    
  -7.11574182E-02  0.494910687     -0.163636401       7049.43799       2.28875065    
  -7.11574182E-02  0.494910687     -0.245454505       7049.43799       2.28875065    
 -0.207707494      0.454816014     -0.245454505       7049.43799       2.28875065    
 -0.327430397      0.377874792     -0.163636401       6180.73047       2.28875089    
 -0.207707494      0.454816014     -0.163636401       6180.73047       2.28875089    
 -0.207707494      0.454816014     -0.245454505       6180.73047       2.28875089    
 -0.327430397      0.377874792     -0.245454505       6180.73047       2.28875089    
 -0.420626789      0.270320386     -0.163636401       4811.29590       2.28875041    
 -0.327430397      0.377874792     -0.163636401       4811.29590       2.28875041    
 -0.327430397      0.377874792     -0.245454505       4811.29590       2.28875041    
 -0.420626789      0.270320386     -0.245454505       4811.29590       2.28875041    
 -0.479746491      0.140866295     -0.163636401       3052.07935       2.28874969    
 -0.420626789      0.270320386     -0.163636401       3052.07935       2.28874969    
 -0.420626789      0.270320386     -0.245454505       3052.07935       2.28874969    
 -0.479746491      0.140866295     -0.245454505       3052.07935       2.28874969    
 -0.500000000       2.84000009E-16 -0.163636401       1045.59619       2.28874874    
 -0.479746491      0.140866295     -0.163636401       1045.59619       2.28874874    
 -0.479746491      0.140866295     -0.245454505       1045.59619       2.28874874    
 -0.500000000       2.84000009E-16 -0.245454505       1045.59619       2.28874874    
  0.479746491      0.140866295     -0.245454505       1339.12463       1.86858356    
  0.500000000       0.00000000     -0.245454505       1339.12463       1.86858356    
  0.500000000       0.00000000     -0.327272713       1339.12463       1.86858356    
  0.479746491      0.140866295     -0.327272713       1339.12463       1.86858356    
  0.420626789      0.270320386     -0.245454505       3908.88965       1.86858392    
  0.479746491      0.140866295     -0.245454505       3908.88965       1.86858392    
  0.479746491      0.140866295     -0.327272713       3908.88965       1.86858392    
  0.420626789      0.270320386     -0.327272713       3908.88965       1.86858392    
  0.327430397      0.377874792     -0.245454505       6161.97559       1.86858404    
  0.420626789      0.270320386     -0.245454505       6161.97559       1.86858404    
  0.420626789      0.270320386     -0.327272713       6161.97559       1.86858404    
  0.327430397      0.377874792     -0.327272713       6161.97559       1.86858404    
  0.207707494      0.454816014     -0.245454505       7915.85449       1.86858416    
  0.327430397      0.377874792     -0.245454505       7915.85449       1.86858416    
  0.327430397      0.377874792     -0.327272713       7915.85449       1.86858416    
  0.207707494      0.454816014     -0.327272713       7915.85449       1.86858416    
   7.11574182E-02  0.494910687     -0.245454505       9028.43262       1.86858451    
  0.207707494      0.454816014     -0.245454505       9028.43262       1.86858451    
  0.207707494      0.454816014     -0.327272713       9028.43262       1.86858451    
   7.11574182E-02  0.494910687     -0.327272713       9028.43262       1.86858451    
  -7.11574182E-02  0.494910687     -0.245454505       9409.58398       1.86858451    
   7.11574182E-02  0.494910687     -0.245454505       9409.58398       1.86858451    
   7.11574182E-02  0.494910687     -0.327272713       9409.58398       1.86858451    
  -7.11574182E-02  0.494910687     -0.327272713       9409.58398       1.86858451    
 -0.207707494      0.454816014     -0.245454505       9028.43457       1.86858451    
  -7.11574182E-02  0.494910687     -0.245454505       9028.43457       1.86858451    
  -7.11574182E-02  0.494910687     -0.327272713       9028.43457       1.86858451    
 -0.207707494      0.454816014     -0.327272713       9028.43457       1.86858451    
 -0.327430397      0.377874792     -0.245454505       7915.85449       1.86858428    
 -0.207707494      0.454816014     -0.245454505       7915.85449       1.86858428    
 -0.207707494      0.454816014     -0.327272713       7915.85449       1.86858428    
 -0.327430397      0.377874792     -0.327272713       7915.85449       1.86858428    
 -0.420626789      0.270320386     -0.245454505       6161.97852       1.86858404    
 -0.327430397      0.377874792     -0.245454505       6161.97852       1.86858404    
 -0.327430397      0.377874792     -0.327272713       6161.97852       1.86858404    
 -0.420626789      0.270320386     -0.327272713       6161.97852       1.86858404    
 -0.479746491      0.140866295     -0.245454505       3908.88965       1.86858404    
 -0.420626789      0.270320386     -0.245454505       3908.88965       1.86858404    
 -0.420626789      0.270320386     -0.327272713       3908.88965       1.86858404    
 -0.479746491      0.140866295     -0.327272713       3908.88965       1.86858404    
 -0.500000000       2.84000009E-16 -0.245454505       1339.12659       1.86858344    
 -0.479746491      0.140866295     -0.245454505       1339.12659       1.86858344    
 -0.479746491      0.140866295     -0.327272713       1339.12659       1.86858344    
 -0.500000000       2.84000009E-16 -0.327272713       1339.12659       1.86858344    
  0.479746491      0.140866295     -0.327272713       1669.54260       1.70495462    
  0.500000000       0.00000000     -0.327272713       1669.54260       1.70495462    
  0.500000000       0.00000000     -0.409090906       1669.54260       1.70495462    
  0.479746491      0.140866295     -0.409090906       1669.54260       1.70495462    
  0.420626789      0.270320386     -0.327272713       4873.36133       1.70495498    
  0.479746491      0.140866295     -0.327272713       4873.36133       1.70495498    
  0.479746491      0.140866295     -0.409090906       4873.36133       1.70495498    
  0.420626789      0.270320386     -0.409090906       4873.36133       1.70495498    
  0.327430397      0.377874792     -0.327272713       7682.37109       1.70495486    
  0.420626789      0.270320386     -0.327272713       7682.37109       1.70495486    
  0.420626789      0.270320386     -0.409090906       7682.37109       1.70495486    
  0.327430397      0.377874792     -0.409090906       7682.37109       1.70495486    
  0.207707494      0.454816014     -0.327272713       9869.00781       1.70495498    
  0.327430397      0.377874792     -0.327272713       9869.00781       1.70495498    
  0.327430397      0.377874792     -0.409090906       9869.00781       1.70495498    
  0.207707494      0.454816014     -0.409090906       9869.00781       1.70495498    
   7.11574182E-02  0.494910687     -0.327272713       11256.1055       1.70495510    
  0.207707494      0.454816014     -0.327272713       11256.1055       1.70495510    
  0.207707494      0.454816014     -0.409090906       11256.1055       1.70495510    
   7.11574182E-02  0.494910687     -0.409090906       11256.1055       1.70495510    
  -7.11574182E-02  0.494910687     -0.327272713       11731.3047       1.70495510    
   7.11574182E-02  0.494910687     -0.327272713       11731.3047       1.70495510    
   7.11574182E-02  0.494910687     -0.409090906       11731.3047       1.70495510    
  -7.11574182E-02  0.494910687     -0.409090906       11731.3047       1.70495510    
 -0.207707494      0.454816014     -0.327272713       11256.1064       1.70495498    
  -7.11574182E-02  0.494910687     -0.327272713       11256.1064       1.70495498    
  -7.11574182E-02  0.494910687     -0.409090906       11256.1064       1.70495498    
 -0.207707494      0.454816014     -0.409090906       11256.1064       1.70495498    
 -0.327430397      0.377874792     -0.327272713       9869.01172       1.70495498    
 -0.207707494      0.454816014     -0.327272713       9869.01172       1.70495498    
 -0.207707494      0.454816014     -0.409090906       9869.01172       1.70495498    
 -0.327430397      0.377874792     -0.409090906       9869.01172       1.70495498    
 -0.420626789      0.270320386     -0.327272713       7682.37305       1.70495498    
 -0.327430397      0.377874792     -0.327272713       7682.37305       1.70495498    
 -0.327430397      0.377874792     -0.409090906       7682.37305       1.70495498    
 -0.420626789      0.270320386     -0.409090906       7682.37305       1.70495498    
 -0.479746491      0.140866295     -0.327272713       4873.36328       1.70495522    
 -0.420626789      0.270320386     -0.327272713       4873.36328       1.70495522    
 -0.420626789      0.270320386     -0.409090906       4873.36328       1.70495522    
 -0.479746491      0.140866295     -0.409090906       4873.36328       1.70495522    
 -0.500000000       2.84000009E-16 -0.327272713       1669.54407       1.70495450    
 -0.479746491      0.140866295     -0.327272713       1669.54407       1.70495450    
 -0.479746491      0.140866295     -0.409090906       1669.54407       1.70495450    
 -0.500000000       2.84000009E-16 -0.409090906       1669.54407       1.70495450    
  0.479746491      0.140866295     -0.409090906       1928.24536       1.63606822    
  0.500000000       0.00000000     -0.409090906       1928.24536       1.63606822    
  0.500000000       0.00000000     -0.490909100       1928.24536       1.63606822    
  0.479746491      0.140866295     -0.490909100       1928.24536       1.63606822    
  0.420626789      0.270320386     -0.409090906       5628.52637       1.63606799    
  0.479746491      0.140866295     -0.409090906       5628.52637       1.63606799    
  0.479746491      0.140866295     -0.490909100       5628.52637       1.63606799    
  0.420626789      0.270320386     -0.490909100       5628.52637       1.63606799    
  0.327430397      0.377874792     -0.409090906       8872.82227       1.63606811    
  0.420626789      0.270320386     -0.409090906       8872.82227       1.63606811    
  0.420626789      0.270320386     -0.490909100       8872.82227       1.63606811    
  0.327430397      0.377874792     -0.490909100       8872.82227       1.63606811    
  0.207707494      0.454816014     -0.409090906       11398.2891       1.63606799    
  0.327430397      0.377874792     -0.409090906       11398.2891       1.63606799    
  0.327430397      0.377874792     -0.490909100       11398.2891       1.63606799    
  0.207707494      0.454816014     -0.490909100       11398.2891       1.63606799    
   7.11574182E-02  0.494910687     -0.409090906       13000.3223       1.63606799    
  0.207707494      0.454816014     -0.409090906       13000.3223       1.63606799    
  0.207707494      0.454816014     -0.490909100       13000.3223       1.63606799    
   7.11574182E-02  0.494910687     -0.490909100       13000.3223       1.63606799    
  -7.11574182E-02  0.494910687     -0.409090906       13549.1641       1.63606799    
   7.11574182E-02  0.494910687     -0.409090906       13549.1641       1.63606799    
   7.11574182E-02  0.494910687     -0.490909100       13549.1641       1.63606799    
  -7.11574182E-02  0.494910687     -0.490909100       13549.1641       1.63606799    
 -0.207707494      0.454816014     -0.409090906       13000.3252       1.63606811    
  -7.11574182E-02  0.494910687     -0.409090906       13000.3252       1.63606811    
  -7.11574182E-02  0.494910687     -0.490909100       13000.3252       1.63606811    
 -0.207707494      0.454816014     -0.490909100       13000.3252       1.63606811    
 -0.327430397      0.377874792     -0.409090906       11398.2900       1.63606799    
 -0.207707494      0.454816014     -0.409090906       11398.2900       1.63606799    
 -0.207707494      0.454816014     -0.490909100       11398.2900       1.63606799    
 -0.327430397      0.377874792     -0.490909100       11398.2900       1.63606799    
 -0.420626789      0.270320386     -0.409090906       8872.82031       1.63606811    
 -0.327430397      0.377874792     -0.409090906       8872.82031       1.63606811    
 -0.327430397      0.377874792     -0.490909100       8872.82031       1.63606811    
 -0.420626789      0.270320386     -0.490909100       8872.82031       1.63606811    
 -0.479746491      0.140866295     -0.409090906       5628.52979       1.63606811    
 -0.420626789      0.270320386     -0.409090906       5628.52979       1.63606811    
 -0.420626789      0.270320386     -0.490909100       5628.52979       1.63606811    
 -0.479746491      0.140866295     -0.490909100       5628.52979       1.63606811    
 -0.500000000       2.84000009E-16 -0.409090906       1928.24805       1.63606811    
 -0.479746491      0.140866295     -0.409090906       1928.24805       1.63606811    
 -0.479746491      0.140866295     -0.490909100       1928.24805       1.63606811    
 -0.500000000       2.84000009E-16 -0.490909100       1928.24805       1.63606811    
  0.479746491      0.140866295     -0.490909100       2105.17822       1.60391533    
  0.500000000       0.00000000     -0.490909100       2105.17822       1.60391533    
  0.500000000       0.00000000     -0.572727323       2105.17822       1.60391533    
  0.479746491      0.140866295     -0.572727323       2105.17822       1.60391533    
  0.420626789      0.270320386     -0.490909100       6144.97803       1.60391521    
  0.479746491      0.140866295     -0.490909100       6144.97803       1.60391521    
  0.479746491      0.140866295     -0.572727323       6144.97803       1.60391521    
  0.420626789      0.270320386     -0.572727323       6144.97803       1.60391521    
  0.327430397      0.377874792     -0.490909100       9686.95801       1.60391533    
  0.420626789      0.270320386     -0.490909100       9686.95801       1.60391533    
  0.420626789      0.270320386     -0.572727323       9686.95801       1.60391533    
  0.327430397      0.377874792     -0.572727323       9686.95801       1.60391533    
  0.207707494      0.454816014     -0.490909100       12444.1602       1.60391545    
  0.327430397      0.377874792     -0.490909100       12444.1602       1.60391545    
  0.327430397      0.377874792     -0.572727323       12444.1602       1.60391545    
  0.207707494      0.454816014     -0.572727323       12444.1602       1.60391545    
   7.11574182E-02  0.494910687     -0.490909100       14193.1992       1.60391557    
  0.207707494      0.454816014     -0.490909100       14193.1992       1.60391557    
  0.207707494      0.454816014     -0.572727323       14193.1992       1.60391557    
   7.11574182E-02  0.494910687     -0.572727323       14193.1992       1.60391557    
  -7.11574182E-02  0.494910687     -0.490909100       14792.3975       1.60391545    
   7.11574182E-02  0.494910687     -0.490909100       14792.3975       1.60391545    
   7.11574182E-02  0.494910687     -0.572727323       14792.3975       1.60391545    
  -7.11574182E-02  0.494910687     -0.572727323       14792.3975       1.60391545    
 -0.207707494      0.454816014     -0.490909100       14193.1963       1.60391557    
  -7.11574182E-02  0.494910687     -0.490909100       14193.1963       1.60391557    
  -7.11574182E-02  0.494910687     -0.572727323       14193.1963       1.60391557    
 -0.207707494      0.454816014     -0.572727323       14193.1963       1.60391557    
 -0.327430397      0.377874792     -0.490909100       12444.1582       1.60391557    
 -0.207707494      0.454816014     -0.490909100       12444.1582       1.60391557    
 -0.207707494      0.454816014     -0.572727323       12444.1582       1.60391557    
 -0.327430397      0.377874792     -0.572727323       12444.1582       1.60391557    
 -0.420626789      0.270320386     -0.490909100       9686.96289       1.60391533    
 -0.327430397      0.377874792     -0.490909100       9686.96289       1.60391533    
 -0.327430397      0.377874792     -0.572727323       9686.96289       1.60391533    
 -0.420626789      0.270320386     -0.572727323       9686.96289       1.60391533    
 -0.479746491      0.140866295     -0.490909100       6144.97852       1.60391533    
 -0.420626789      0.270320386     -0.490909100       6144.97852       1.60391533    
 -0.420626789      0.270320386     -0.572727323       6144.97852       1.60391533    
 -0.479746491      0.140866295     -0.572727323       6144.97852       1.60391533    
 -0.500000000       2.84000009E-16 -0.490909100       2105.17822       1.60391545    
 -0.479746491      0.140866295     -0.490909100       2105.17822       1.60391545    
 -0.479746491      0.140866295     -0.572727323       2105.17822       1.60391545    
 -0.500000000       2.84000009E-16 -0.572727323       2105.17822       1.60391545    
  0.479746491      0.140866295     -0.572727323       2204.83350       1.58798766    
  0.500000000       0.00000000     -0.572727323       2204.83350       1.58798766    
  0.500000000       0.00000000     -0.654545426       2204.83350       1.58798766    
  0.479746491      0.140866295     -0.654545426       2204.83350       1.58798766    
  0.420626789      0.270320386     -0.572727323       6435.88330       1.58798766    
  0.479746491      0.140866295     -0.572727323       6435.88330       1.58798766    
  0.479746491      0.140866295     -0.654545426       6435.88330       1.58798766    
  0.420626789      0.270320386     -0.654545426       6435.88330       1.58798766    
  0.327430397      0.377874792     -0.572727323       10145.5293       1.58798766    
  0.420626789      0.270320386     -0.572727323       10145.5293       1.58798766    
  0.420626789      0.270320386     -0.654545426       10145.5293       1.58798766    
  0.327430397      0.377874792     -0.654545426       10145.5293       1.58798766    
  0.207707494      0.454816014     -0.572727323       13033.2568       1.58798766    
  0.327430397      0.377874792     -0.572727323       13033.2568       1.58798766    
  0.327430397      0.377874792     -0.654545426       13033.2568       1.58798766    
  0.207707494      0.454816014     -0.654545426       13033.2568       1.58798766    
   7.11574182E-02  0.494910687     -0.572727323       14865.0781       1.58798778    
  0.207707494      0.454816014     -0.572727323       14865.0781       1.58798778    
  0.207707494      0.454816014     -0.654545426       14865.0781       1.58798778    
   7.11574182E-02  0.494910687     -0.654545426       14865.0781       1.58798778    
  -7.11574182E-02  0.494910687     -0.572727323       15492.6523       1.58798778    
   7.11574182E-02  0.494910687     -0.572727323       15492.6523       1.58798778    
   7.11574182E-02  0.494910687     -0.654545426       15492.6523       1.58798778    
  -7.11574182E-02  0.494910687     -0.654545426       15492.6523       1.58798778    
 -0.207707494      0.454816014     -0.572727323       14865.0762       1.58798778    
  -7.11574182E-02  0.494910687     -0.572727323       14865.0762       1.58798778    
  -7.11574182E-02  0.494910687     -0.654545426       14865.0762       1.58798778    
 -0.207707494      0.454816014     -0.654545426       14865.0762       1.58798778    
 -0.327430397      0.377874792     -0.572727323       13033.2549       1.58798766    
 -0.207707494      0.454816014     -0.572727323       13033.2549       1.58798766    
 -0.207707494      0.454816014     -0.654545426       13033.2549       1.58798766    
 -0.327430397      0.377874792     -0.654545426       13033.2549       1.58798766    
 -0.420626789      0.270320386     -0.572727323       10145.5254       1.58798778    
 -0.327430397      0.377874792     -0.572727323       10145.5254       1.58798778    
 -0.327430397      0.377874792     -0.654545426       10145.5254       1.58798778    
 -0.420626789      0.270320386     -0.654545426       10145.5254       1.58798778    
 -0.479746491      0.140866295     -0.572727323       6435.88330       1.58798766    
 -0.420626789      0.270320386     -0.572727323       6435.88330       1.58798766    
 -0.420626789      0.270320386     -0.654545426       6435.88330       1.58798766    