 VARIABLES="X" "Y" "Z" "abs(p) (Pa)" "angle(p) (rad)"
ZONE N=    528,E =     462, F=FEPOINT, ET=QUADRILATERAL
  0.479746491      0.140866295       0.00000000       67.8759689       1.96272290    
  0.500000000       0.00000000       0.00000000       67.8759689       1.96272290    
  0.500000000       0.00000000      -8.18181783E-02   67.8759689       1.96272290    
  0.479746491      0.140866295      -8.18181783E-02   67.8759689       1.96272290    
  0.420626789      0.270320386       0.00000000       67.8759079       1.96272337    
  0.479746491      0.140866295       0.00000000       67.8759079       1.96272337    
  0.479746491      0.140866295      -8.18181783E-02   67.8759079       1.96272337    
  0.420626789      0.270320386      -8.18181783E-02   67.8759079       1.96272337    
  0.327430397      0.377874792       0.00000000       67.8759613       1.96272302    
  0.420626789      0.270320386       0.00000000       67.8759613       1.96272302    
  0.420626789      0.270320386      -8.18181783E-02   67.8759613       1.96272302    
  0.327430397      0.377874792      -8.18181783E-02   67.8759613       1.96272302    
  0.207707494      0.454816014       0.00000000       67.8759003       1.96272349    
  0.327430397      0.377874792       0.00000000       67.8759003       1.96272349    
  0.327430397      0.377874792      -8.18181783E-02   67.8759003       1.96272349    
  0.207707494      0.454816014      -8.18181783E-02   67.8759003       1.96272349    
   7.11574182E-02  0.494910687       0.00000000       67.8760147       1.96272290    
  0.207707494      0.454816014       0.00000000       67.8760147       1.96272290    
  0.207707494      0.454816014      -8.18181783E-02   67.8760147       1.96272290    
   7.11574182E-02  0.494910687      -8.18181783E-02   67.8760147       1.96272290    
  -7.11574182E-02  0.494910687       0.00000000       67.8758316       1.96272373    
   7.11574182E-02  0.494910687       0.00000000       67.8758316       1.96272373    
   7.11574182E-02  0.494910687      -8.18181783E-02   67.8758316       1.96272373    
  -7.11574182E-02  0.494910687      -8.18181783E-02   67.8758316       1.96272373    
 -0.207707494      0.454816014       0.00000000       67.8759613       1.96272314    
  -7.11574182E-02  0.494910687       0.00000000       67.8759613       1.96272314    
  -7.11574182E-02  0.494910687      -8.18181783E-02   67.8759613       1.96272314    
 -0.207707494      0.454816014      -8.18181783E-02   67.8759613       1.96272314    
 -0.327430397      0.377874792       0.00000000       67.8759537       1.96272337    
 -0.207707494      0.454816014       0.00000000       67.8759537       1.96272337    
 -0.207707494      0.454816014      -8.18181783E-02   67.8759537       1.96272337    
 -0.327430397      0.377874792      -8.18181783E-02   67.8759537       1.96272337    
 -0.420626789      0.270320386       0.00000000       67.8759995       1.96272266    
 -0.327430397      0.377874792       0.00000000       67.8759995       1.96272266    
 -0.327430397      0.377874792      -8.18181783E-02   67.8759995       1.96272266    
 -0.420626789      0.270320386      -8.18181783E-02   67.8759995       1.96272266    
 -0.479746491      0.140866295       0.00000000       67.8758926       1.96272361    
 -0.420626789      0.270320386       0.00000000       67.8758926       1.96272361    
 -0.420626789      0.270320386      -8.18181783E-02   67.8758926       1.96272361    
 -0.479746491      0.140866295      -8.18181783E-02   67.8758926       1.96272361    
 -0.500000000       2.84000009E-16   0.00000000       67.8759537       1.96272337    
 -0.479746491      0.140866295       0.00000000       67.8759537       1.96272337    
 -0.479746491      0.140866295      -8.18181783E-02   67.8759537       1.96272337    
 -0.500000000       2.84000009E-16  -8.18181783E-02   67.8759537       1.96272337    
  0.479746491      0.140866295      -8.18181783E-02   68.0775299       1.96143878    
  0.500000000       0.00000000      -8.18181783E-02   68.0775299       1.96143878    
  0.500000000       0.00000000     -0.163636401       68.0775299       1.96143878    
  0.479746491      0.140866295     -0.163636401       68.0775299       1.96143878    
  0.420626789      0.270320386      -8.18181783E-02   68.0775223       1.96143878    
  0.479746491      0.140866295      -8.18181783E-02   68.0775223       1.96143878    
  0.479746491      0.140866295     -0.163636401       68.0775223       1.96143878    
  0.420626789      0.270320386     -0.163636401       68.0775223       1.96143878    
  0.327430397      0.377874792      -8.18181783E-02   68.0774384       1.96143937    
  0.420626789      0.270320386      -8.18181783E-02   68.0774384       1.96143937    
  0.420626789      0.270320386     -0.163636401       68.0774384       1.96143937    
  0.327430397      0.377874792     -0.163636401       68.0774384       1.96143937    
  0.207707494      0.454816014      -8.18181783E-02   68.0775146       1.96143913    
  0.327430397      0.377874792      -8.18181783E-02   68.0775146       1.96143913    
  0.327430397      0.377874792     -0.163636401       68.0775146       1.96143913    
  0.207707494      0.454816014     -0.163636401       68.0775146       1.96143913    
   7.11574182E-02  0.494910687      -8.18181783E-02   68.0774994       1.96143925    
  0.207707494      0.454816014      -8.18181783E-02   68.0774994       1.96143925    
  0.207707494      0.454816014     -0.163636401       68.0774994       1.96143925    
   7.11574182E-02  0.494910687     -0.163636401       68.0774994       1.96143925    
  -7.11574182E-02  0.494910687      -8.18181783E-02   68.0774994       1.96143913    
   7.11574182E-02  0.494910687      -8.18181783E-02   68.0774994       1.96143913    
   7.11574182E-02  0.494910687     -0.163636401       68.0774994       1.96143913    
  -7.11574182E-02  0.494910687     -0.163636401       68.0774994       1.96143913    
 -0.207707494      0.454816014      -8.18181783E-02   68.0774612       1.96143949    
  -7.11574182E-02  0.494910687      -8.18181783E-02   68.0774612       1.96143949    
  -7.11574182E-02  0.494910687     -0.163636401       68.0774612       1.96143949    
 -0.207707494      0.454816014     -0.163636401       68.0774612       1.96143949    
 -0.327430397      0.377874792      -8.18181783E-02   68.0774231       1.96143961    
 -0.207707494      0.454816014      -8.18181783E-02   68.0774231       1.96143961    
 -0.207707494      0.454816014     -0.163636401       68.0774231       1.96143961    
 -0.327430397      0.377874792     -0.163636401       68.0774231       1.96143961    
 -0.420626789      0.270320386      -8.18181783E-02   68.0774231       1.96143925    
 -0.327430397      0.377874792      -8.18181783E-02   68.0774231       1.96143925    
 -0.327430397      0.377874792     -0.163636401       68.0774231       1.96143925    
 -0.420626789      0.270320386     -0.163636401       68.0774231       1.96143925    
 -0.479746491      0.140866295      -8.18181783E-02   68.0775223       1.96143878    
 -0.420626789      0.270320386      -8.18181783E-02   68.0775223       1.96143878    
 -0.420626789      0.270320386     -0.163636401       68.0775223       1.96143878    
 -0.479746491      0.140866295     -0.163636401       68.0775223       1.96143878    
 -0.500000000       2.84000009E-16  -8.18181783E-02   68.0775757       1.96143866    
 -0.479746491      0.140866295      -8.18181783E-02   68.0775757       1.96143866    
 -0.479746491      0.140866295     -0.163636401       68.0775757       1.96143866    
 -0.500000000       2.84000009E-16 -0.163636401       68.0775757       1.96143866    
  0.479746491      0.140866295     -0.163636401       68.4729233       1.95900667    
  0.500000000       0.00000000     -0.163636401       68.4729233       1.95900667    
  0.500000000       0.00000000     -0.245454505       68.4729233       1.95900667    
  0.479746491      0.140866295     -0.245454505       68.4729233       1.95900667    
  0.420626789      0.270320386     -0.163636401       68.4730072       1.95900619    
  0.479746491      0.140866295     -0.163636401       68.4730072       1.95900619    
  0.479746491      0.140866295     -0.245454505       68.4730072       1.95900619    
  0.420626789      0.270320386     -0.245454505       68.4730072       1.95900619    
  0.327430397      0.377874792     -0.163636401       68.4730301       1.95900631    
  0.420626789      0.270320386     -0.163636401       68.4730301       1.95900631    
  0.420626789      0.270320386     -0.245454505       68.4730301       1.95900631    
  0.327430397      0.377874792     -0.245454505       68.4730301       1.95900631    
  0.207707494      0.454816014     -0.163636401       68.4729538       1.95900655    
  0.327430397      0.377874792     -0.163636401       68.4729538       1.95900655    
  0.327430397      0.377874792     -0.245454505       68.4729538       1.95900655    
  0.207707494      0.454816014     -0.245454505       68.4729538       1.95900655    
   7.11574182E-02  0.494910687     -0.163636401       68.4728851       1.95900714    
  0.207707494      0.454816014     -0.163636401       68.4728851       1.95900714    
  0.207707494      0.454816014     -0.245454505       68.4728851       1.95900714    
   7.11574182E-02  0.494910687     -0.245454505       68.4728851       1.95900714    
  -7.11574182E-02  0.494910687     -0.163636401       68.4729385       1.95900702    
   7.11574182E-02  0.494910687     -0.163636401       68.4729385       1.95900702    
   7.11574182E-02  0.494910687     -0.245454505       68.4729385       1.95900702    
  -7.11574182E-02  0.494910687     -0.245454505       68.4729385       1.95900702    
 -0.207707494      0.454816014     -0.163636401       68.4729691       1.95900643    
  -7.11574182E-02  0.494910687     -0.163636401       68.4729691       1.95900643    
  -7.11574182E-02  0.494910687     -0.245454505       68.4729691       1.95900643    
 -0.207707494      0.454816014     -0.245454505       68.4729691       1.95900643    
 -0.327430397      0.377874792     -0.163636401       68.4729538       1.95900655    
 -0.207707494      0.454816014     -0.163636401       68.4729538       1.95900655    
 -0.207707494      0.454816014     -0.245454505       68.4729538       1.95900655    
 -0.327430397      0.377874792     -0.245454505       68.4729538       1.95900655    
 -0.420626789      0.270320386     -0.163636401       68.4729614       1.95900643    
 -0.327430397      0.377874792     -0.163636401       68.4729614       1.95900643    
 -0.327430397      0.377874792     -0.245454505       68.4729614       1.95900643    
 -0.420626789      0.270320386     -0.245454505       68.4729614       1.95900643    
 -0.479746491      0.140866295     -0.163636401       68.4729538       1.95900679    
 -0.420626789      0.270320386     -0.163636401       68.4729538       1.95900679    
 -0.420626789      0.270320386     -0.245454505       68.4729538       1.95900679    
 -0.479746491      0.140866295     -0.245454505       68.4729538       1.95900679    
 -0.500000000       2.84000009E-16 -0.163636401       68.4728851       1.95900714    
 -0.479746491      0.140866295     -0.163636401       68.4728851       1.95900714    
 -0.479746491      0.140866295     -0.245454505       68.4728851       1.95900714    
 -0.500000000       2.84000009E-16 -0.245454505       68.4728851       1.95900714    
  0.479746491      0.140866295     -0.245454505       69.1072311       1.95520711    
  0.500000000       0.00000000     -0.245454505       69.1072311       1.95520711    
  0.500000000       0.00000000     -0.327272713       69.1072311       1.95520711    
  0.479746491      0.140866295     -0.327272713       69.1072311       1.95520711    
  0.420626789      0.270320386     -0.245454505       69.1071701       1.95520735    
  0.479746491      0.140866295     -0.245454505       69.1071701       1.95520735    
  0.479746491      0.140866295     -0.327272713       69.1071701       1.95520735    
  0.420626789      0.270320386     -0.327272713       69.1071701       1.95520735    
  0.327430397      0.377874792     -0.245454505       69.1071091       1.95520794    
  0.420626789      0.270320386     -0.245454505       69.1071091       1.95520794    
  0.420626789      0.270320386     -0.327272713       69.1071091       1.95520794    
  0.327430397      0.377874792     -0.327272713       69.1071091       1.95520794    
  0.207707494      0.454816014     -0.245454505       69.1071167       1.95520747    
  0.327430397      0.377874792     -0.245454505       69.1071167       1.95520747    
  0.327430397      0.377874792     -0.327272713       69.1071167       1.95520747    
  0.207707494      0.454816014     -0.327272713       69.1071167       1.95520747    
   7.11574182E-02  0.494910687     -0.245454505       69.1072235       1.95520711    
  0.207707494      0.454816014     -0.245454505       69.1072235       1.95520711    
  0.207707494      0.454816014     -0.327272713       69.1072235       1.95520711    
   7.11574182E-02  0.494910687     -0.327272713       69.1072235       1.95520711    
  -7.11574182E-02  0.494910687     -0.245454505       69.1073151       1.95520663    
   7.11574182E-02  0.494910687     -0.245454505       69.1073151       1.95520663    
   7.11574182E-02  0.494910687     -0.327272713       69.1073151       1.95520663    
  -7.11574182E-02  0.494910687     -0.327272713       69.1073151       1.95520663    
 -0.207707494      0.454816014     -0.245454505       69.1072159       1.95520723    
  -7.11574182E-02  0.494910687     -0.245454505       69.1072159       1.95520723    
  -7.11574182E-02  0.494910687     -0.327272713       69.1072159       1.95520723    
 -0.207707494      0.454816014     -0.327272713       69.1072159       1.95520723    
 -0.327430397      0.377874792     -0.245454505       69.1072693       1.95520663    
 -0.207707494      0.454816014     -0.245454505       69.1072693       1.95520663    
 -0.207707494      0.454816014     -0.327272713       69.1072693       1.95520663    
 -0.327430397      0.377874792     -0.327272713       69.1072693       1.95520663    
 -0.420626789      0.270320386     -0.245454505       69.1071396       1.95520747    
 -0.327430397      0.377874792     -0.245454505       69.1071396       1.95520747    
 -0.327430397      0.377874792     -0.327272713       69.1071396       1.95520747    
 -0.420626789      0.270320386     -0.327272713       69.1071396       1.95520747    
 -0.479746491      0.140866295     -0.245454505       69.1071320       1.95520771    
 -0.420626789      0.270320386     -0.245454505       69.1071320       1.95520771    
 -0.420626789      0.270320386     -0.327272713       69.1071320       1.95520771    
 -0.479746491      0.140866295     -0.327272713       69.1071320       1.95520771    
 -0.500000000       2.84000009E-16 -0.245454505       69.1072159       1.95520699    
 -0.479746491      0.140866295     -0.245454505       69.1072159       1.95520699    
 -0.479746491      0.140866295     -0.327272713       69.1072159       1.95520699    
 -0.500000000       2.84000009E-16 -0.327272713       69.1072159       1.95520699    
  0.479746491      0.140866295     -0.327272713       70.0267029       1.94985819    
  0.500000000       0.00000000     -0.327272713       70.0267029       1.94985819    
  0.500000000       0.00000000     -0.409090906       70.0267029       1.94985819    
  0.479746491      0.140866295     -0.409090906       70.0267029       1.94985819    
  0.420626789      0.270320386     -0.327272713       70.0267715       1.94985747    
  0.479746491      0.140866295     -0.327272713       70.0267715       1.94985747    
  0.479746491      0.140866295     -0.409090906       70.0267715       1.94985747    
  0.420626789      0.270320386     -0.409090906       70.0267715       1.94985747    
  0.327430397      0.377874792     -0.327272713       70.0268631       1.94985712    
  0.420626789      0.270320386     -0.327272713       70.0268631       1.94985712    
  0.420626789      0.270320386     -0.409090906       70.0268631       1.94985712    
  0.327430397      0.377874792     -0.409090906       70.0268631       1.94985712    
  0.207707494      0.454816014     -0.327272713       70.0267639       1.94985783    
  0.327430397      0.377874792     -0.327272713       70.0267639       1.94985783    
  0.327430397      0.377874792     -0.409090906       70.0267639       1.94985783    
  0.207707494      0.454816014     -0.409090906       70.0267639       1.94985783    
   7.11574182E-02  0.494910687     -0.327272713       70.0267639       1.94985783    
  0.207707494      0.454816014     -0.327272713       70.0267639       1.94985783    
  0.207707494      0.454816014     -0.409090906       70.0267639       1.94985783    
   7.11574182E-02  0.494910687     -0.409090906       70.0267639       1.94985783    
  -7.11574182E-02  0.494910687     -0.327272713       70.0266647       1.94985819    
   7.11574182E-02  0.494910687     -0.327272713       70.0266647       1.94985819    
   7.11574182E-02  0.494910687     -0.409090906       70.0266647       1.94985819    
  -7.11574182E-02  0.494910687     -0.409090906       70.0266647       1.94985819    
 -0.207707494      0.454816014     -0.327272713       70.0267639       1.94985783    
  -7.11574182E-02  0.494910687     -0.327272713       70.0267639       1.94985783    
  -7.11574182E-02  0.494910687     -0.409090906       70.0267639       1.94985783    
 -0.207707494      0.454816014     -0.409090906       70.0267639       1.94985783    
 -0.327430397      0.377874792     -0.327272713       70.0268402       1.94985723    
 -0.207707494      0.454816014     -0.327272713       70.0268402       1.94985723    
 -0.207707494      0.454816014     -0.409090906       70.0268402       1.94985723    
 -0.327430397      0.377874792     -0.409090906       70.0268402       1.94985723    
 -0.420626789      0.270320386     -0.327272713       70.0267792       1.94985747    
 -0.327430397      0.377874792     -0.327272713       70.0267792       1.94985747    
 -0.327430397      0.377874792     -0.409090906       70.0267792       1.94985747    
 -0.420626789      0.270320386     -0.409090906       70.0267792       1.94985747    
 -0.479746491      0.140866295     -0.327272713       70.0266953       1.94985795    
 -0.420626789      0.270320386     -0.327272713       70.0266953       1.94985795    
 -0.420626789      0.270320386     -0.409090906       70.0266953       1.94985795    
 -0.479746491      0.140866295     -0.409090906       70.0266953       1.94985795    
 -0.500000000       2.84000009E-16 -0.327272713       70.0267029       1.94985819    
 -0.479746491      0.140866295     -0.327272713       70.0267029       1.94985819    
 -0.479746491      0.140866295     -0.409090906       70.0267029       1.94985819    
 -0.500000000       2.84000009E-16 -0.409090906       70.0267029       1.94985819    
  0.479746491      0.140866295     -0.409090906       71.2551880       1.94296300    
  0.500000000       0.00000000     -0.409090906       71.2551880       1.94296300    
  0.500000000       0.00000000     -0.490909100       71.2551880       1.94296300    
  0.479746491      0.140866295     -0.490909100       71.2551880       1.94296300    
  0.420626789      0.270320386     -0.409090906       71.2552032       1.94296288    
  0.479746491      0.140866295     -0.409090906       71.2552032       1.94296288    
  0.479746491      0.140866295     -0.490909100       71.2552032       1.94296288    
  0.420626789      0.270320386     -0.490909100       71.2552032       1.94296288    
  0.327430397      0.377874792     -0.409090906       71.2551117       1.94296336    
  0.420626789      0.270320386     -0.409090906       71.2551117       1.94296336    
  0.420626789      0.270320386     -0.490909100       71.2551117       1.94296336    
  0.327430397      0.377874792     -0.490909100       71.2551117       1.94296336    
  0.207707494      0.454816014     -0.409090906       71.2551651       1.94296324    
  0.327430397      0.377874792     -0.409090906       71.2551651       1.94296324    
  0.327430397      0.377874792     -0.490909100       71.2551651       1.94296324    
  0.207707494      0.454816014     -0.490909100       71.2551651       1.94296324    
   7.11574182E-02  0.494910687     -0.409090906       71.2551422       1.94296336    
  0.207707494      0.454816014     -0.409090906       71.2551422       1.94296336    
  0.207707494      0.454816014     -0.490909100       71.2551422       1.94296336    
   7.11574182E-02  0.494910687     -0.490909100       71.2551422       1.94296336    
  -7.11574182E-02  0.494910687     -0.409090906       71.2552338       1.94296265    
   7.11574182E-02  0.494910687     -0.409090906       71.2552338       1.94296265    
   7.11574182E-02  0.494910687     -0.490909100       71.2552338       1.94296265    
  -7.11574182E-02  0.494910687     -0.490909100       71.2552338       1.94296265    
 -0.207707494      0.454816014     -0.409090906       71.2551880       1.94296312    
  -7.11574182E-02  0.494910687     -0.409090906       71.2551880       1.94296312    
  -7.11574182E-02  0.494910687     -0.490909100       71.2551880       1.94296312    
 -0.207707494      0.454816014     -0.490909100       71.2551880       1.94296312    
 -0.327430397      0.377874792     -0.409090906       71.2552109       1.94296300    
 -0.207707494      0.454816014     -0.409090906       71.2552109       1.94296300    
 -0.207707494      0.454816014     -0.490909100       71.2552109       1.94296300    
 -0.327430397      0.377874792     -0.490909100       71.2552109       1.94296300    
 -0.420626789      0.270320386     -0.409090906       71.2551193       1.94296348    
 -0.327430397      0.377874792     -0.409090906       71.2551193       1.94296348    
 -0.327430397      0.377874792     -0.490909100       71.2551193       1.94296348    
 -0.420626789      0.270320386     -0.490909100       71.2551193       1.94296348    
 -0.479746491      0.140866295     -0.409090906       71.2551727       1.94296300    
 -0.420626789      0.270320386     -0.409090906       71.2551727       1.94296300    
 -0.420626789      0.270320386     -0.490909100       71.2551727       1.94296300    
 -0.479746491      0.140866295     -0.490909100       71.2551727       1.94296300    
 -0.500000000       2.84000009E-16 -0.409090906       71.2552032       1.94296300    
 -0.479746491      0.140866295     -0.409090906       71.2552032       1.94296300    
 -0.479746491      0.140866295     -0.490909100       71.2552032       1.94296300    
 -0.500000000       2.84000009E-16 -0.490909100       71.2552032       1.94296300    
  0.479746491      0.140866295     -0.490909100       72.9003067       1.93413782    
  0.500000000       0.00000000     -0.490909100       72.9003067       1.93413782    
  0.500000000       0.00000000     -0.572727323       72.9003067       1.93413782    
  0.479746491      0.140866295     -0.572727323       72.9003067       1.93413782    
  0.420626789      0.270320386     -0.490909100       72.9002762       1.93413806    
  0.479746491      0.140866295     -0.490909100       72.9002762       1.93413806    
  0.479746491      0.140866295     -0.572727323       72.9002762       1.93413806    
  0.420626789      0.270320386     -0.572727323       72.9002762       1.93413806    
  0.327430397      0.377874792     -0.490909100       72.9003754       1.93413758    
  0.420626789      0.270320386     -0.490909100       72.9003754       1.93413758    
  0.420626789      0.270320386     -0.572727323       72.9003754       1.93413758    
  0.327430397      0.377874792     -0.572727323       72.9003754       1.93413758    
  0.207707494      0.454816014     -0.490909100       72.9002380       1.93413818    
  0.327430397      0.377874792     -0.490909100       72.9002380       1.93413818    
  0.327430397      0.377874792     -0.572727323       72.9002380       1.93413818    
  0.207707494      0.454816014     -0.572727323       72.9002380       1.93413818    
   7.11574182E-02  0.494910687     -0.490909100       72.9002380       1.93413806    
  0.207707494      0.454816014     -0.490909100       72.9002380       1.93413806    
  0.207707494      0.454816014     -0.572727323       72.9002380       1.93413806    
   7.11574182E-02  0.494910687     -0.572727323       72.9002380       1.93413806    
  -7.11574182E-02  0.494910687     -0.490909100       72.9002380       1.93413818    
   7.11574182E-02  0.494910687     -0.490909100       72.9002380       1.93413818    
   7.11574182E-02  0.494910687     -0.572727323       72.9002380       1.93413818    
  -7.11574182E-02  0.494910687     -0.572727323       72.9002380       1.93413818    
 -0.207707494      0.454816014     -0.490909100       72.9002686       1.93413794    
  -7.11574182E-02  0.494910687     -0.490909100       72.9002686       1.93413794    
  -7.11574182E-02  0.494910687     -0.572727323       72.9002686       1.93413794    
 -0.207707494      0.454816014     -0.572727323       72.9002686       1.93413794    
 -0.327430397      0.377874792     -0.490909100       72.9003067       1.93413794    
 -0.207707494      0.454816014     -0.490909100       72.9003067       1.93413794    
 -0.207707494      0.454816014     -0.572727323       72.9003067       1.93413794    
 -0.327430397      0.377874792     -0.572727323       72.9003067       1.93413794    
 -0.420626789      0.270320386     -0.490909100       72.9003525       1.93413782    
 -0.327430397      0.377874792     -0.490909100       72.9003525       1.93413782    
 -0.327430397      0.377874792     -0.572727323       72.9003525       1.93413782    
 -0.420626789      0.270320386     -0.572727323       72.9003525       1.93413782    
 -0.479746491      0.140866295     -0.490909100       72.9003372       1.93413782    
 -0.420626789      0.270320386     -0.490909100       72.9003372       1.93413782    
 -0.420626789      0.270320386     -0.572727323       72.9003372       1.93413782    
 -0.479746491      0.140866295     -0.572727323       72.9003372       1.93413782    
 -0.500000000       2.84000009E-16 -0.490909100       72.9002380       1.93413830    
 -0.479746491      0.140866295     -0.490909100       72.9002380       1.93413830    
 -0.479746491      0.140866295     -0.572727323       72.9002380       1.93413830    
 -0.500000000       2.84000009E-16 -0.572727323       72.9002380       1.93413830    
  0.479746491      0.140866295     -0.572727323       75.2041321       1.92249048    
  0.500000000       0.00000000     -0.572727323       75.2041321       1.92249048    
  0.500000000       0.00000000     -0.654545426       75.2041321       1.92249048    
  0.479746491      0.140866295     -0.654545426       75.2041321       1.92249048    
  0.420626789      0.270320386     -0.572727323       75.2042007       1.92249024    
  0.479746491      0.140866295     -0.572727323       75.2042007       1.92249024    
  0.479746491      0.140866295     -0.654545426       75.2042007       1.92249024    
  0.420626789      0.270320386     -0.654545426       75.2042007       1.92249024    
  0.327430397      0.377874792     -0.572727323       75.2042465       1.92248976    
  0.420626789      0.270320386     -0.572727323       75.2042465       1.92248976    
  0.420626789      0.270320386     -0.654545426       75.2042465       1.92248976    
  0.327430397      0.377874792     -0.654545426       75.2042465       1.92248976    
  0.207707494      0.454816014     -0.572727323       75.2041016       1.92249060    
  0.327430397      0.377874792     -0.572727323       75.2041016       1.92249060    
  0.327430397      0.377874792     -0.654545426       75.2041016       1.92249060    
  0.207707494      0.454816014     -0.654545426       75.2041016       1.92249060    
   7.11574182E-02  0.494910687     -0.572727323       75.2042313       1.92248988    
  0.207707494      0.454816014     -0.572727323       75.2042313       1.92248988    
  0.207707494      0.454816014     -0.654545426       75.2042313       1.92248988    
   7.11574182E-02  0.494910687     -0.654545426       75.2042313       1.92248988    
  -7.11574182E-02  0.494910687     -0.572727323       75.2041473       1.92249036    
   7.11574182E-02  0.494910687     -0.572727323       75.2041473       1.92249036    
   7.11574182E-02  0.494910687     -0.654545426       75.2041473       1.92249036    
  -7.11574182E-02  0.494910687     -0.654545426       75.2041473       1.92249036    
 -0.207707494      0.454816014     -0.572727323       75.2041550       1.92249012    
  -7.11574182E-02  0.494910687     -0.572727323       75.2041550       1.92249012    
  -7.11574182E-02  0.494910687     -0.654545426       75.2041550       1.92249012    
 -0.207707494      0.454816014     -0.654545426       75.2041550       1.92249012    
 -0.327430397      0.377874792     -0.572727323       75.2041702       1.92249036    
 -0.207707494      0.454816014     -0.572727323       75.2041702       1.92249036    
 -0.207707494      0.454816014     -0.654545426       75.2041702       1.92249036    
 -0.327430397      0.377874792     -0.654545426       75.2041702       1.92249036    
 -0.420626789      0.270320386     -0.572727323       75.2042389       1.92248988    
 -0.327430397      0.377874792     -0.572727323       75.2042389       1.92248988    
 -0.327430397      0.377874792     -0.654545426       75.2042389       1.92248988    
 -0.420626789      0.270320386     -0.654545426       75.2042389       1.92248988    
 -0.479746491      0.140866295     -0.572727323       75.2041702       1.92249012    
 -0.420626789      0.270320386     -0.572727323       75.2041702       1.92249012    
 -0.420626789      0.270320386     -0.654545426       75.2041702       1.92249012    