 VARIABLES="X" "Y" "Z" "abs(p) (Pa)" "angle(p) (rad)"
ZONE N=    528,E =     462, F=FEPOINT, ET=QUADRILATERAL
  0.479746491      0.140866295       0.00000000       3.31761180E-06 -0.467493534    
  0.500000000       0.00000000       0.00000000       3.31761180E-06 -0.467493534    
  0.500000000       0.00000000      -8.18181783E-02   3.31761180E-06 -0.467493534    
  0.479746491      0.140866295      -8.18181783E-02   3.31761180E-06 -0.467493534    
  0.420626789      0.270320386       0.00000000       2.17899214E-05  -1.19482434    
  0.479746491      0.140866295       0.00000000       2.17899214E-05  -1.19482434    
  0.479746491      0.140866295      -8.18181783E-02   2.17899214E-05  -1.19482434    
  0.420626789      0.270320386      -8.18181783E-02   2.17899214E-05  -1.19482434    
  0.327430397      0.377874792       0.00000000       1.07026717E-05  -7.77730122E-02
  0.420626789      0.270320386       0.00000000       1.07026717E-05  -7.77730122E-02
  0.420626789      0.270320386      -8.18181783E-02   1.07026717E-05  -7.77730122E-02
  0.327430397      0.377874792      -8.18181783E-02   1.07026717E-05  -7.77730122E-02
  0.207707494      0.454816014       0.00000000       2.78126572E-05  -1.19378102    
  0.327430397      0.377874792       0.00000000       2.78126572E-05  -1.19378102    
  0.327430397      0.377874792      -8.18181783E-02   2.78126572E-05  -1.19378102    
  0.207707494      0.454816014      -8.18181783E-02   2.78126572E-05  -1.19378102    
   7.11574182E-02  0.494910687       0.00000000       7.56587451E-06  0.406309038    
  0.207707494      0.454816014       0.00000000       7.56587451E-06  0.406309038    
  0.207707494      0.454816014      -8.18181783E-02   7.56587451E-06  0.406309038    
   7.11574182E-02  0.494910687      -8.18181783E-02   7.56587451E-06  0.406309038    
  -7.11574182E-02  0.494910687       0.00000000       2.05047400E-06  0.355820805    
   7.11574182E-02  0.494910687       0.00000000       2.05047400E-06  0.355820805    
   7.11574182E-02  0.494910687      -8.18181783E-02   2.05047400E-06  0.355820805    
  -7.11574182E-02  0.494910687      -8.18181783E-02   2.05047400E-06  0.355820805    
 -0.207707494      0.454816014       0.00000000       3.78033587E-06  -2.59111166    
  -7.11574182E-02  0.494910687       0.00000000       3.78033587E-06  -2.59111166    
  -7.11574182E-02  0.494910687      -8.18181783E-02   3.78033587E-06  -2.59111166    
 -0.207707494      0.454816014      -8.18181783E-02   3.78033587E-06  -2.59111166    
 -0.327430397      0.377874792       0.00000000       2.66490060E-05   1.83181489    
 -0.207707494      0.454816014       0.00000000       2.66490060E-05   1.83181489    
 -0.207707494      0.454816014      -8.18181783E-02   2.66490060E-05   1.83181489    
 -0.327430397      0.377874792      -8.18181783E-02   2.66490060E-05   1.83181489    
 -0.420626789      0.270320386       0.00000000       7.98948713E-06  -3.05279541    
 -0.327430397      0.377874792       0.00000000       7.98948713E-06  -3.05279541    
 -0.327430397      0.377874792      -8.18181783E-02   7.98948713E-06  -3.05279541    
 -0.420626789      0.270320386      -8.18181783E-02   7.98948713E-06  -3.05279541    
 -0.479746491      0.140866295       0.00000000       1.90908868E-05   1.90291941    
 -0.420626789      0.270320386       0.00000000       1.90908868E-05   1.90291941    
 -0.420626789      0.270320386      -8.18181783E-02   1.90908868E-05   1.90291941    
 -0.479746491      0.140866295      -8.18181783E-02   1.90908868E-05   1.90291941    
 -0.500000000       2.84000009E-16   0.00000000       2.39327437E-06   2.93389130    
 -0.479746491      0.140866295       0.00000000       2.39327437E-06   2.93389130    
 -0.479746491      0.140866295      -8.18181783E-02   2.39327437E-06   2.93389130    
 -0.500000000       2.84000009E-16  -8.18181783E-02   2.39327437E-06   2.93389130    
  0.479746491      0.140866295      -8.18181783E-02   2.77685626E-06 -0.512116432    
  0.500000000       0.00000000      -8.18181783E-02   2.77685626E-06 -0.512116432    
  0.500000000       0.00000000     -0.163636401       2.77685626E-06 -0.512116432    
  0.479746491      0.140866295     -0.163636401       2.77685626E-06 -0.512116432    
  0.420626789      0.270320386      -8.18181783E-02   2.09863247E-05  -1.25393391    
  0.479746491      0.140866295      -8.18181783E-02   2.09863247E-05  -1.25393391    
  0.479746491      0.140866295     -0.163636401       2.09863247E-05  -1.25393391    
  0.420626789      0.270320386     -0.163636401       2.09863247E-05  -1.25393391    
  0.327430397      0.377874792      -8.18181783E-02   8.77179536E-06 -0.108102731    
  0.420626789      0.270320386      -8.18181783E-02   8.77179536E-06 -0.108102731    
  0.420626789      0.270320386     -0.163636401       8.77179536E-06 -0.108102731    
  0.327430397      0.377874792     -0.163636401       8.77179536E-06 -0.108102731    
  0.207707494      0.454816014      -8.18181783E-02   2.60478555E-05  -1.24376392    
  0.327430397      0.377874792      -8.18181783E-02   2.60478555E-05  -1.24376392    
  0.327430397      0.377874792     -0.163636401       2.60478555E-05  -1.24376392    
  0.207707494      0.454816014     -0.163636401       2.60478555E-05  -1.24376392    
   7.11574182E-02  0.494910687      -8.18181783E-02   6.34153230E-06  0.461471528    
  0.207707494      0.454816014      -8.18181783E-02   6.34153230E-06  0.461471528    
  0.207707494      0.454816014     -0.163636401       6.34153230E-06  0.461471528    
   7.11574182E-02  0.494910687     -0.163636401       6.34153230E-06  0.461471528    
  -7.11574182E-02  0.494910687      -8.18181783E-02   1.66816631E-06  0.348375022    
   7.11574182E-02  0.494910687      -8.18181783E-02   1.66816631E-06  0.348375022    
   7.11574182E-02  0.494910687     -0.163636401       1.66816631E-06  0.348375022    
  -7.11574182E-02  0.494910687     -0.163636401       1.66816631E-06  0.348375022    
 -0.207707494      0.454816014      -8.18181783E-02   3.33359094E-06  -2.48321056    
  -7.11574182E-02  0.494910687      -8.18181783E-02   3.33359094E-06  -2.48321056    
  -7.11574182E-02  0.494910687     -0.163636401       3.33359094E-06  -2.48321056    
 -0.207707494      0.454816014     -0.163636401       3.33359094E-06  -2.48321056    
 -0.327430397      0.377874792      -8.18181783E-02   2.50956637E-05   1.79683542    
 -0.207707494      0.454816014      -8.18181783E-02   2.50956637E-05   1.79683542    
 -0.207707494      0.454816014     -0.163636401       2.50956637E-05   1.79683542    
 -0.327430397      0.377874792     -0.163636401       2.50956637E-05   1.79683542    
 -0.420626789      0.270320386      -8.18181783E-02   6.55068561E-06  -3.02646184    
 -0.327430397      0.377874792      -8.18181783E-02   6.55068561E-06  -3.02646184    
 -0.327430397      0.377874792     -0.163636401       6.55068561E-06  -3.02646184    
 -0.420626789      0.270320386     -0.163636401       6.55068561E-06  -3.02646184    
 -0.479746491      0.140866295      -8.18181783E-02   1.77053535E-05   1.86236978    
 -0.420626789      0.270320386      -8.18181783E-02   1.77053535E-05   1.86236978    
 -0.420626789      0.270320386     -0.163636401       1.77053535E-05   1.86236978    
 -0.479746491      0.140866295     -0.163636401       1.77053535E-05   1.86236978    
 -0.500000000       2.84000009E-16  -8.18181783E-02   1.92611537E-06   3.03300309    
 -0.479746491      0.140866295      -8.18181783E-02   1.92611537E-06   3.03300309    
 -0.479746491      0.140866295     -0.163636401       1.92611537E-06   3.03300309    
 -0.500000000       2.84000009E-16 -0.163636401       1.92611537E-06   3.03300309    
  0.479746491      0.140866295     -0.163636401       3.38446284E-06 -0.946532130    
  0.500000000       0.00000000     -0.163636401       3.38446284E-06 -0.946532130    
  0.500000000       0.00000000     -0.245454505       3.38446284E-06 -0.946532130    
  0.479746491      0.140866295     -0.245454505       3.38446284E-06 -0.946532130    
  0.420626789      0.270320386     -0.163636401       2.38997545E-05  -1.34529173    
  0.479746491      0.140866295     -0.163636401       2.38997545E-05  -1.34529173    
  0.479746491      0.140866295     -0.245454505       2.38997545E-05  -1.34529173    
  0.420626789      0.270320386     -0.245454505       2.38997545E-05  -1.34529173    
  0.327430397      0.377874792     -0.163636401       9.60518992E-06 -0.734811604    
  0.420626789      0.270320386     -0.163636401       9.60518992E-06 -0.734811604    
  0.420626789      0.270320386     -0.245454505       9.60518992E-06 -0.734811604    
  0.327430397      0.377874792     -0.245454505       9.60518992E-06 -0.734811604    
  0.207707494      0.454816014     -0.163636401       2.59507124E-05  -1.30415606    
  0.327430397      0.377874792     -0.163636401       2.59507124E-05  -1.30415606    
  0.327430397      0.377874792     -0.245454505       2.59507124E-05  -1.30415606    
  0.207707494      0.454816014     -0.245454505       2.59507124E-05  -1.30415606    
   7.11574182E-02  0.494910687     -0.163636401       4.63999140E-06   1.06905401E-02
  0.207707494      0.454816014     -0.163636401       4.63999140E-06   1.06905401E-02
  0.207707494      0.454816014     -0.245454505       4.63999140E-06   1.06905401E-02
   7.11574182E-02  0.494910687     -0.245454505       4.63999140E-06   1.06905401E-02
  -7.11574182E-02  0.494910687     -0.163636401       1.35240145E-06  0.327808410    
   7.11574182E-02  0.494910687     -0.163636401       1.35240145E-06  0.327808410    
   7.11574182E-02  0.494910687     -0.245454505       1.35240145E-06  0.327808410    
  -7.11574182E-02  0.494910687     -0.245454505       1.35240145E-06  0.327808410    
 -0.207707494      0.454816014     -0.163636401       2.21445362E-06   2.91153622    
  -7.11574182E-02  0.494910687     -0.163636401       2.21445362E-06   2.91153622    
  -7.11574182E-02  0.494910687     -0.245454505       2.21445362E-06   2.91153622    
 -0.207707494      0.454816014     -0.245454505       2.21445362E-06   2.91153622    
 -0.327430397      0.377874792     -0.163636401       2.50750400E-05   1.75519848    
 -0.207707494      0.454816014     -0.163636401       2.50750400E-05   1.75519848    
 -0.207707494      0.454816014     -0.245454505       2.50750400E-05   1.75519848    
 -0.327430397      0.377874792     -0.245454505       2.50750400E-05   1.75519848    
 -0.420626789      0.270320386     -0.163636401       6.81340225E-06   2.46655250    
 -0.327430397      0.377874792     -0.163636401       6.81340225E-06   2.46655250    
 -0.327430397      0.377874792     -0.245454505       6.81340225E-06   2.46655250    
 -0.420626789      0.270320386     -0.245454505       6.81340225E-06   2.46655250    
 -0.479746491      0.140866295     -0.163636401       1.70065141E-05   1.81792343    
 -0.420626789      0.270320386     -0.163636401       1.70065141E-05   1.81792343    
 -0.420626789      0.270320386     -0.245454505       1.70065141E-05   1.81792343    
 -0.479746491      0.140866295     -0.245454505       1.70065141E-05   1.81792343    
 -0.500000000       2.84000009E-16 -0.163636401       1.97285203E-06   2.48701811    
 -0.479746491      0.140866295     -0.163636401       1.97285203E-06   2.48701811    
 -0.479746491      0.140866295     -0.245454505       1.97285203E-06   2.48701811    
 -0.500000000       2.84000009E-16 -0.245454505       1.97285203E-06   2.48701811    
  0.479746491      0.140866295     -0.245454505       2.39553992E-06 -0.827962399    
  0.500000000       0.00000000     -0.245454505       2.39553992E-06 -0.827962399    
  0.500000000       0.00000000     -0.327272713       2.39553992E-06 -0.827962399    
  0.479746491      0.140866295     -0.327272713       2.39553992E-06 -0.827962399    
  0.420626789      0.270320386     -0.245454505       2.24121759E-05  -1.37423682    
  0.479746491      0.140866295     -0.245454505       2.24121759E-05  -1.37423682    
  0.479746491      0.140866295     -0.327272713       2.24121759E-05  -1.37423682    
  0.420626789      0.270320386     -0.327272713       2.24121759E-05  -1.37423682    
  0.327430397      0.377874792     -0.245454505       1.69958730E-05  -1.22022033    
  0.420626789      0.270320386     -0.245454505       1.69958730E-05  -1.22022033    
  0.420626789      0.270320386     -0.327272713       1.69958730E-05  -1.22022033    
  0.327430397      0.377874792     -0.327272713       1.69958730E-05  -1.22022033    
  0.207707494      0.454816014     -0.245454505       2.63054426E-05  -1.35625982    
  0.327430397      0.377874792     -0.245454505       2.63054426E-05  -1.35625982    
  0.327430397      0.377874792     -0.327272713       2.63054426E-05  -1.35625982    
  0.207707494      0.454816014     -0.327272713       2.63054426E-05  -1.35625982    
   7.11574182E-02  0.494910687     -0.245454505       4.29436932E-06  0.484723985    
  0.207707494      0.454816014     -0.245454505       4.29436932E-06  0.484723985    
  0.207707494      0.454816014     -0.327272713       4.29436932E-06  0.484723985    
   7.11574182E-02  0.494910687     -0.327272713       4.29436932E-06  0.484723985    
  -7.11574182E-02  0.494910687     -0.245454505       1.09425844E-06  0.292052120    
   7.11574182E-02  0.494910687     -0.245454505       1.09425844E-06  0.292052120    
   7.11574182E-02  0.494910687     -0.327272713       1.09425844E-06  0.292052120    
  -7.11574182E-02  0.494910687     -0.327272713       1.09425844E-06  0.292052120    
 -0.207707494      0.454816014     -0.245454505       2.42606052E-06  -2.38666248    
  -7.11574182E-02  0.494910687     -0.245454505       2.42606052E-06  -2.38666248    
  -7.11574182E-02  0.494910687     -0.327272713       2.42606052E-06  -2.38666248    
 -0.207707494      0.454816014     -0.327272713       2.42606052E-06  -2.38666248    
 -0.327430397      0.377874792     -0.245454505       2.54071674E-05   1.71960294    
 -0.207707494      0.454816014     -0.245454505       2.54071674E-05   1.71960294    
 -0.207707494      0.454816014     -0.327272713       2.54071674E-05   1.71960294    
 -0.327430397      0.377874792     -0.327272713       2.54071674E-05   1.71960294    
 -0.420626789      0.270320386     -0.245454505       1.40581624E-05   1.88595164    
 -0.327430397      0.377874792     -0.245454505       1.40581624E-05   1.88595164    
 -0.327430397      0.377874792     -0.327272713       1.40581624E-05   1.88595164    
 -0.420626789      0.270320386     -0.327272713       1.40581624E-05   1.88595164    
 -0.479746491      0.140866295     -0.245454505       1.44872274E-05   1.80826187    
 -0.420626789      0.270320386     -0.245454505       1.44872274E-05   1.80826187    
 -0.420626789      0.270320386     -0.327272713       1.44872274E-05   1.80826187    
 -0.479746491      0.140866295     -0.327272713       1.44872274E-05   1.80826187    
 -0.500000000       2.84000009E-16 -0.245454505       1.28453769E-06  -3.07999206    
 -0.479746491      0.140866295     -0.245454505       1.28453769E-06  -3.07999206    
 -0.479746491      0.140866295     -0.327272713       1.28453769E-06  -3.07999206    
 -0.500000000       2.84000009E-16 -0.327272713       1.28453769E-06  -3.07999206    
  0.479746491      0.140866295     -0.327272713       3.48271556E-06  -1.17840362    
  0.500000000       0.00000000     -0.327272713       3.48271556E-06  -1.17840362    
  0.500000000       0.00000000     -0.409090906       3.48271556E-06  -1.17840362    
  0.479746491      0.140866295     -0.409090906       3.48271556E-06  -1.17840362    
  0.420626789      0.270320386     -0.327272713       2.50779285E-05  -1.42684031    
  0.479746491      0.140866295     -0.327272713       2.50779285E-05  -1.42684031    
  0.479746491      0.140866295     -0.409090906       2.50779285E-05  -1.42684031    
  0.420626789      0.270320386     -0.409090906       2.50779285E-05  -1.42684031    
  0.327430397      0.377874792     -0.327272713       9.94353559E-06  -1.06730425    
  0.420626789      0.270320386     -0.327272713       9.94353559E-06  -1.06730425    
  0.420626789      0.270320386     -0.409090906       9.94353559E-06  -1.06730425    
  0.327430397      0.377874792     -0.409090906       9.94353559E-06  -1.06730425    
  0.207707494      0.454816014     -0.327272713       2.63190013E-05  -1.39500523    
  0.327430397      0.377874792     -0.327272713       2.63190013E-05  -1.39500523    
  0.327430397      0.377874792     -0.409090906       2.63190013E-05  -1.39500523    
  0.207707494      0.454816014     -0.409090906       2.63190013E-05  -1.39500523    
   7.11574182E-02  0.494910687     -0.327272713       3.24974553E-06 -0.280632168    
  0.207707494      0.454816014     -0.327272713       3.24974553E-06 -0.280632168    
  0.207707494      0.454816014     -0.409090906       3.24974553E-06 -0.280632168    
   7.11574182E-02  0.494910687     -0.409090906       3.24974553E-06 -0.280632168    
  -7.11574182E-02  0.494910687     -0.327272713       8.85760528E-07  0.238887668    
   7.11574182E-02  0.494910687     -0.327272713       8.85760528E-07  0.238887668    
   7.11574182E-02  0.494910687     -0.409090906       8.85760528E-07  0.238887668    
  -7.11574182E-02  0.494910687     -0.409090906       8.85760528E-07  0.238887668    
 -0.207707494      0.454816014     -0.327272713       1.79107224E-06   2.51727390    
  -7.11574182E-02  0.494910687     -0.327272713       1.79107224E-06   2.51727390    
  -7.11574182E-02  0.494910687     -0.409090906       1.79107224E-06   2.51727390    
 -0.207707494      0.454816014     -0.409090906       1.79107224E-06   2.51727390    
 -0.327430397      0.377874792     -0.327272713       2.53591788E-05   1.69322777    
 -0.207707494      0.454816014     -0.327272713       2.53591788E-05   1.69322777    
 -0.207707494      0.454816014     -0.409090906       2.53591788E-05   1.69322777    
 -0.327430397      0.377874792     -0.409090906       2.53591788E-05   1.69322777    
 -0.420626789      0.270320386     -0.327272713       6.88137470E-06   2.11834645    
 -0.327430397      0.377874792     -0.327272713       6.88137470E-06   2.11834645    
 -0.327430397      0.377874792     -0.409090906       6.88137470E-06   2.11834645    
 -0.420626789      0.270320386     -0.409090906       6.88137470E-06   2.11834645    
 -0.479746491      0.140866295     -0.327272713       1.67989383E-05   1.73835754    
 -0.420626789      0.270320386     -0.327272713       1.67989383E-05   1.73835754    
 -0.420626789      0.270320386     -0.409090906       1.67989383E-05   1.73835754    
 -0.479746491      0.140866295     -0.409090906       1.67989383E-05   1.73835754    
 -0.500000000       2.84000009E-16 -0.327272713       1.62528056E-06   2.27641225    
 -0.479746491      0.140866295     -0.327272713       1.62528056E-06   2.27641225    
 -0.479746491      0.140866295     -0.409090906       1.62528056E-06   2.27641225    
 -0.500000000       2.84000009E-16 -0.409090906       1.62528056E-06   2.27641225    
  0.479746491      0.140866295     -0.409090906       3.25761857E-06  -1.22628820    
  0.500000000       0.00000000     -0.409090906       3.25761857E-06  -1.22628820    
  0.500000000       0.00000000     -0.490909100       3.25761857E-06  -1.22628820    
  0.479746491      0.140866295     -0.490909100       3.25761857E-06  -1.22628820    
  0.420626789      0.270320386     -0.409090906       2.50369521E-05  -1.45180976    
  0.479746491      0.140866295     -0.409090906       2.50369521E-05  -1.45180976    
  0.479746491      0.140866295     -0.490909100       2.50369521E-05  -1.45180976    
  0.420626789      0.270320386     -0.490909100       2.50369521E-05  -1.45180976    
  0.327430397      0.377874792     -0.409090906       1.02581080E-05  -1.17411888    
  0.420626789      0.270320386     -0.409090906       1.02581080E-05  -1.17411888    
  0.420626789      0.270320386     -0.490909100       1.02581080E-05  -1.17411888    
  0.327430397      0.377874792     -0.490909100       1.02581080E-05  -1.17411888    
  0.207707494      0.454816014     -0.409090906       2.66398838E-05  -1.42757893    
  0.327430397      0.377874792     -0.409090906       2.66398838E-05  -1.42757893    
  0.327430397      0.377874792     -0.490909100       2.66398838E-05  -1.42757893    
  0.207707494      0.454816014     -0.490909100       2.66398838E-05  -1.42757893    
   7.11574182E-02  0.494910687     -0.409090906       2.74309946E-06 -0.347315311    
  0.207707494      0.454816014     -0.409090906       2.74309946E-06 -0.347315311    
  0.207707494      0.454816014     -0.490909100       2.74309946E-06 -0.347315311    
   7.11574182E-02  0.494910687     -0.490909100       2.74309946E-06 -0.347315311    
  -7.11574182E-02  0.494910687     -0.409090906       7.20579408E-07  0.167105779    
   7.11574182E-02  0.494910687     -0.409090906       7.20579408E-07  0.167105779    
   7.11574182E-02  0.494910687     -0.490909100       7.20579408E-07  0.167105779    
  -7.11574182E-02  0.494910687     -0.490909100       7.20579408E-07  0.167105779    
 -0.207707494      0.454816014     -0.409090906       1.51169615E-06   2.48889685    
  -7.11574182E-02  0.494910687     -0.409090906       1.51169615E-06   2.48889685    
  -7.11574182E-02  0.494910687     -0.490909100       1.51169615E-06   2.48889685    
 -0.207707494      0.454816014     -0.490909100       1.51169615E-06   2.48889685    
 -0.327430397      0.377874792     -0.409090906       2.56272961E-05   1.67081380    
 -0.207707494      0.454816014     -0.409090906       2.56272961E-05   1.67081380    
 -0.207707494      0.454816014     -0.490909100       2.56272961E-05   1.67081380    
 -0.327430397      0.377874792     -0.490909100       2.56272961E-05   1.67081380    
 -0.420626789      0.270320386     -0.409090906       7.17315515E-06   1.99613035    
 -0.327430397      0.377874792     -0.409090906       7.17315515E-06   1.99613035    
 -0.327430397      0.377874792     -0.490909100       7.17315515E-06   1.99613035    
 -0.420626789      0.270320386     -0.490909100       7.17315515E-06   1.99613035    
 -0.479746491      0.140866295     -0.409090906       1.66965874E-05   1.70987952    
 -0.420626789      0.270320386     -0.409090906       1.66965874E-05   1.70987952    
 -0.420626789      0.270320386     -0.490909100       1.66965874E-05   1.70987952    
 -0.479746491      0.140866295     -0.490909100       1.66965874E-05   1.70987952    
 -0.500000000       2.84000009E-16 -0.409090906       1.37080451E-06   2.25912309    
 -0.479746491      0.140866295     -0.409090906       1.37080451E-06   2.25912309    
 -0.479746491      0.140866295     -0.490909100       1.37080451E-06   2.25912309    
 -0.500000000       2.84000009E-16 -0.490909100       1.37080451E-06   2.25912309    
  0.479746491      0.140866295     -0.490909100       1.37833626E-06 -0.844772100    
  0.500000000       0.00000000     -0.490909100       1.37833626E-06 -0.844772100    
  0.500000000       0.00000000     -0.572727323       1.37833626E-06 -0.844772100    
  0.479746491      0.140866295     -0.572727323       1.37833626E-06 -0.844772100    
  0.420626789      0.270320386     -0.490909100       2.19262165E-05  -1.45781755    
  0.479746491      0.140866295     -0.490909100       2.19262165E-05  -1.45781755    
  0.479746491      0.140866295     -0.572727323       2.19262165E-05  -1.45781755    
  0.420626789      0.270320386     -0.572727323       2.19262165E-05  -1.45781755    
  0.327430397      0.377874792     -0.490909100       1.98203052E-05  -1.40370798    
  0.420626789      0.270320386     -0.490909100       1.98203052E-05  -1.40370798    
  0.420626789      0.270320386     -0.572727323       1.98203052E-05  -1.40370798    
  0.327430397      0.377874792     -0.572727323       1.98203052E-05  -1.40370798    
  0.207707494      0.454816014     -0.490909100       2.75044804E-05  -1.45556378    
  0.327430397      0.377874792     -0.490909100       2.75044804E-05  -1.45556378    
  0.327430397      0.377874792     -0.572727323       2.75044804E-05  -1.45556378    
  0.207707494      0.454816014     -0.572727323       2.75044804E-05  -1.45556378    
   7.11574182E-02  0.494910687     -0.490909100       3.07963842E-06  0.800176859    
  0.207707494      0.454816014     -0.490909100       3.07963842E-06  0.800176859    
  0.207707494      0.454816014     -0.572727323       3.07963842E-06  0.800176859    
   7.11574182E-02  0.494910687     -0.572727323       3.07963842E-06  0.800176859    
  -7.11574182E-02  0.494910687     -0.490909100       5.92700815E-07   7.76027367E-02
   7.11574182E-02  0.494910687     -0.490909100       5.92700815E-07   7.76027367E-02
   7.11574182E-02  0.494910687     -0.572727323       5.92700815E-07   7.76027367E-02
  -7.11574182E-02  0.494910687     -0.572727323       5.92700815E-07   7.76027367E-02
 -0.207707494      0.454816014     -0.490909100       2.55869054E-06  -1.97185540    
  -7.11574182E-02  0.494910687     -0.490909100       2.55869054E-06  -1.97185540    
  -7.11574182E-02  0.494910687     -0.572727323       2.55869054E-06  -1.97185540    
 -0.207707494      0.454816014     -0.572727323       2.55869054E-06  -1.97185540    
 -0.327430397      0.377874792     -0.490909100       2.64661794E-05   1.65129828    
 -0.207707494      0.454816014     -0.490909100       2.64661794E-05   1.65129828    
 -0.207707494      0.454816014     -0.572727323       2.64661794E-05   1.65129828    
 -0.327430397      0.377874792     -0.572727323       2.64661794E-05   1.65129828    
 -0.420626789      0.270320386     -0.490909100       1.68455499E-05   1.71745479    
 -0.327430397      0.377874792     -0.490909100       1.68455499E-05   1.71745479    
 -0.327430397      0.377874792     -0.572727323       1.68455499E-05   1.71745479    
 -0.420626789      0.270320386     -0.572727323       1.68455499E-05   1.71745479    
 -0.479746491      0.140866295     -0.490909100       1.37890775E-05   1.71086884    
 -0.420626789      0.270320386     -0.490909100       1.37890775E-05   1.71086884    
 -0.420626789      0.270320386     -0.572727323       1.37890775E-05   1.71086884    
 -0.479746491      0.140866295     -0.572727323       1.37890775E-05   1.71086884    
 -0.500000000       2.84000009E-16 -0.490909100       1.15674004E-06  -2.24734092    
 -0.479746491      0.140866295     -0.490909100       1.15674004E-06  -2.24734092    
 -0.479746491      0.140866295     -0.572727323       1.15674004E-06  -2.24734092    
 -0.500000000       2.84000009E-16 -0.572727323       1.15674004E-06  -2.24734092    
  0.479746491      0.140866295     -0.572727323       7.71492978E-07  -9.81690437E-02
  0.500000000       0.00000000     -0.572727323       7.71492978E-07  -9.81690437E-02
  0.500000000       0.00000000     -0.654545426       7.71492978E-07  -9.81690437E-02
  0.479746491      0.140866295     -0.654545426       7.71492978E-07  -9.81690437E-02
  0.420626789      0.270320386     -0.572727323       2.07690082E-05  -1.47076797    
  0.479746491      0.140866295     -0.572727323       2.07690082E-05  -1.47076797    
  0.479746491      0.140866295     -0.654545426       2.07690082E-05  -1.47076797    
  0.420626789      0.270320386     -0.654545426       2.07690082E-05  -1.47076797    
  0.327430397      0.377874792     -0.572727323       2.01748171E-05  -1.43327367    
  0.420626789      0.270320386     -0.572727323       2.01748171E-05  -1.43327367    
  0.420626789      0.270320386     -0.654545426       2.01748171E-05  -1.43327367    
  0.327430397      0.377874792     -0.654545426       2.01748171E-05  -1.43327367    
  0.207707494      0.454816014     -0.572727323       2.88967694E-05  -1.47884274    
  0.327430397      0.377874792     -0.572727323       2.88967694E-05  -1.47884274    
  0.327430397      0.377874792     -0.654545426       2.88967694E-05  -1.47884274    
  0.207707494      0.454816014     -0.654545426       2.88967694E-05  -1.47884274    
   7.11574182E-02  0.494910687     -0.572727323       2.74812669E-06  0.856600583    
  0.207707494      0.454816014     -0.572727323       2.74812669E-06  0.856600583    
  0.207707494      0.454816014     -0.654545426       2.74812669E-06  0.856600583    
   7.11574182E-02  0.494910687     -0.654545426       2.74812669E-06  0.856600583    
  -7.11574182E-02  0.494910687     -0.572727323       4.96264704E-07  -2.76154689E-02
   7.11574182E-02  0.494910687     -0.572727323       4.96264704E-07  -2.76154689E-02
   7.11574182E-02  0.494910687     -0.654545426       4.96264704E-07  -2.76154689E-02
  -7.11574182E-02  0.494910687     -0.654545426       4.96264704E-07  -2.76154689E-02
 -0.207707494      0.454816014     -0.572727323       2.46748505E-06  -1.91717386    
  -7.11574182E-02  0.494910687     -0.572727323       2.46748505E-06  -1.91717386    
  -7.11574182E-02  0.494910687     -0.654545426       2.46748505E-06  -1.91717386    
 -0.207707494      0.454816014     -0.654545426       2.46748505E-06  -1.91717386    
 -0.327430397      0.377874792     -0.572727323       2.78631724E-05   1.63491023    
 -0.207707494      0.454816014     -0.572727323       2.78631724E-05   1.63491023    
 -0.207707494      0.454816014     -0.654545426       2.78631724E-05   1.63491023    
 -0.327430397      0.377874792     -0.654545426       2.78631724E-05   1.63491023    
 -0.420626789      0.270320386     -0.572727323       1.74389897E-05   1.68948483    
 -0.327430397      0.377874792     -0.572727323       1.74389897E-05   1.68948483    
 -0.327430397      0.377874792     -0.654545426       1.74389897E-05   1.68948483    
 -0.420626789      0.270320386     -0.654545426       1.74389897E-05   1.68948483    
 -0.479746491      0.140866295     -0.572727323       1.34497277E-05   1.69115686    
 -0.420626789      0.270320386     -0.572727323       1.34497277E-05   1.69115686    
 -0.420626789      0.270320386     -0.654545426       1.34497277E-05   1.69115686    