VARIABLES="w (rad/s)"  
"A   1   1" "B   1   1"
"A   1   2" "B   1   2"
"A   1   3" "B   1   3"
"A   1   4" "B   1   4"
"A   1   5" "B   1   5"
"A   1   6" "B   1   6"
Zone t="Motion of body    1 in DoF   1",I=    50,F=POINT
  0.1000000E+00  0.6569924E+03  0.2390335E-01  0.8344650E-06 -0.4947651E-10 -0.2677850E-03 -0.1182365E-04  0.8677249E-05 -0.1438877E-09  0.4668867E+04  0.1700109E+00  0.9592327E-12 -0.2411266E-16
  0.1387755E+00  0.6733911E+03  0.6592041E-01 -0.2384186E-06 -0.1615560E-10  0.3797933E-04 -0.9670972E-06 -0.3114779E-05  0.8238447E-09  0.4787384E+04  0.4689462E+00 -0.1421085E-12 -0.1781455E-16
  0.1775510E+00  0.6727500E+03  0.1379224E+00 -0.6556511E-06  0.2480359E-09 -0.2905726E-06  0.2875217E-05  0.3036228E-05 -0.1558097E-09  0.4782779E+04  0.9811553E+00 -0.4476419E-12 -0.2439375E-15
  0.2163265E+00  0.6736758E+03  0.2499654E+00 -0.1072884E-05  0.2518372E-10  0.9452924E-04  0.8803579E-05  0.1274460E-04 -0.3671192E-09  0.4789416E+04  0.1778221E+01 -0.3481659E-12 -0.2071472E-15
  0.2551020E+00  0.6743502E+03  0.4105372E+00 -0.8940697E-06 -0.1781867E-09  0.5745143E-04  0.4251101E-05  0.3122346E-05  0.5684922E-09  0.4794237E+04  0.2920532E+01 -0.2557954E-12  0.1486906E-15
  0.2938775E+00  0.6752960E+03  0.6288258E+00  0.1788139E-06 -0.1368474E-09  0.5577505E-04 -0.5148113E-05  0.6700633E-05  0.3078231E-08  0.4800977E+04  0.4473454E+01 -0.3197442E-12 -0.7993606E-15
  0.3326530E+00  0.6772380E+03  0.9155151E+00 -0.1192093E-05  0.5421628E-09  0.1181625E-03  0.2295788E-05 -0.8085364E-05 -0.1205798E-07  0.4814992E+04  0.6513126E+01 -0.7105427E-13 -0.2862223E-15
  0.3714286E+00  0.6768452E+03  0.1274102E+01  0.1788139E-06  0.2248479E-08 -0.4000217E-04 -0.1057302E-04  0.8045638E-05 -0.9837602E-08  0.4811995E+04  0.9064064E+01 -0.6821210E-12  0.9690661E-15
  0.4102041E+00  0.6783640E+03  0.1721642E+01  0.1788139E-06 -0.2101178E-08 -0.2501532E-04 -0.2056062E-05  0.2376299E-05 -0.1876967E-07  0.4822884E+04  0.1224809E+02 -0.5258016E-12  0.6945125E-15
  0.4489796E+00  0.6795545E+03  0.2263313E+01  0.2980232E-06 -0.6272172E-09 -0.4287809E-05 -0.1266848E-06 -0.4175585E-05  0.2391541E-07  0.4831368E+04  0.1610181E+02  0.4689582E-12 -0.2517261E-14
  0.4877551E+00  0.6808625E+03  0.2910109E+01  0.0000000E+00 -0.2271287E-09  0.1801550E-04  0.1715787E-05  0.2103916E-05 -0.2878013E-07  0.4840728E+04  0.2070358E+02  0.8384404E-12 -0.2166068E-15
  0.5265306E+00  0.6822561E+03  0.3671842E+01 -0.1788139E-06 -0.9807397E-09  0.1031645E-03  0.3122203E-04  0.2378365E-06  0.3250855E-08  0.4850676E+04  0.2612321E+02 -0.1016076E-11  0.1929069E-14
  0.5653061E+00  0.6837234E+03  0.4558835E+01 -0.9536743E-06 -0.1052965E-08  0.3777444E-04  0.1319296E-04  0.3624329E-05  0.4700886E-07  0.4861155E+04  0.3243422E+02  0.9023893E-12  0.3765695E-15
  0.6040816E+00  0.6852388E+03  0.5581499E+01 -0.2980232E-06 -0.1125190E-08  0.1332536E-04  0.8187900E-05 -0.5732611E-05 -0.7402078E-07  0.4871990E+04  0.3971076E+02 -0.1350031E-12  0.6840786E-14
  0.6428572E+00  0.6868038E+03  0.6750312E+01  0.1370907E-05 -0.9579319E-08  0.3440678E-04  0.1590257E-04 -0.6067334E-05  0.1623468E-07  0.4883182E+04  0.4802740E+02  0.2074785E-11 -0.1427430E-15
  0.6816327E+00  0.6884395E+03  0.8076354E+01 -0.9536743E-06 -0.6983019E-08 -0.3484264E-04 -0.8752104E-05 -0.1006291E-04 -0.1043051E-07  0.4894870E+04  0.5746304E+02 -0.1634248E-12  0.1513529E-14
  0.7204082E+00  0.6901167E+03  0.9570928E+01  0.5960464E-06  0.1006399E-07 -0.6855652E-04 -0.2098932E-04 -0.6117334E-06  0.1176156E-06  0.4906863E+04  0.6809831E+02 -0.2344791E-12 -0.1199721E-14
  0.7591837E+00  0.6918384E+03  0.1124543E+02 -0.1192093E-06 -0.5656359E-08 -0.7624179E-04 -0.3629138E-04 -0.1722423E-05 -0.6341654E-07  0.4919186E+04  0.8001442E+02  0.1207923E-12  0.5731470E-14
  0.7979592E+00  0.6936014E+03  0.1311130E+02  0.1072884E-05 -0.2972630E-08 -0.4422292E-04 -0.2158993E-04  0.9533018E-05  0.2377886E-07  0.4931794E+04  0.9329271E+02 -0.3836931E-12  0.2046458E-13
  0.8367347E+00  0.6954161E+03  0.1518105E+02  0.7152557E-06  0.2181956E-07 -0.3896654E-05 -0.2594871E-05 -0.8918782E-05  0.4643277E-07  0.4944773E+04  0.1080226E+03  0.1207923E-12  0.1486339E-14
  0.8755102E+00  0.6972663E+03  0.1746665E+02  0.1192093E-06 -0.2283071E-07 -0.1130998E-04 -0.8170743E-05 -0.8880947E-05  0.4917775E-08  0.4958018E+04  0.1242892E+03 -0.9166001E-12 -0.1807942E-13
  0.9142857E+00  0.6991468E+03  0.1998067E+02  0.5960464E-07 -0.1532691E-07  0.1891702E-04  0.6222193E-05  0.8367933E-05  0.7886057E-07  0.4971471E+04  0.1421823E+03 -0.2984279E-12  0.1157170E-13
  0.9530612E+00  0.7010590E+03  0.2273645E+02  0.1549721E-05  0.8876074E-08  0.6004050E-04  0.4515725E-04  0.2051616E-05 -0.2559326E-07  0.4985168E+04  0.1617969E+03 -0.1065814E-12 -0.1100435E-13
  0.9918368E+00  0.7030015E+03  0.2574692E+02 -0.1132488E-05  0.3325392E-07  0.2875179E-04  0.1809995E-04 -0.4047761E-05 -0.1464782E-07  0.4999085E+04  0.1832255E+03  0.2557954E-12 -0.3083248E-13
  0.1030612E+01  0.7049677E+03  0.2902525E+02  0.1430511E-05  0.2111631E-07  0.9626150E-05  0.7327361E-05 -0.1363776E-05  0.4304061E-07  0.5013164E+04  0.2065617E+03  0.1634248E-12 -0.7094098E-14
  0.1069388E+01  0.7069693E+03  0.3258665E+02  0.3576279E-06  0.0000000E+00  0.5175546E-04  0.3799953E-04 -0.5028996E-05 -0.2518788E-06  0.5027500E+04  0.2319143E+03  0.4618528E-12 -0.1116023E-13
  0.1108163E+01  0.7089917E+03  0.3644511E+02  0.2980232E-06 -0.5779522E-07  0.1131371E-04  0.1111010E-04  0.3502209E-05  0.1269975E-06  0.5041992E+04  0.2593830E+03  0.5897505E-12 -0.1722432E-14
  0.1146939E+01  0.7110258E+03  0.4061440E+02 -0.5960464E-07  0.4272680E-08  0.1123175E-04  0.1248717E-04  0.3156107E-05 -0.9877861E-07  0.5056578E+04  0.2890658E+03 -0.6181722E-12 -0.6621461E-13
  0.1185714E+01  0.7130762E+03  0.4511028E+02 -0.1311302E-05  0.5742269E-07  0.4392862E-04  0.5547943E-04 -0.9757961E-05  0.6469025E-06  0.5071280E+04  0.3210764E+03 -0.1421085E-13 -0.2422190E-13
  0.1224490E+01  0.7151339E+03  0.4994708E+02 -0.4172325E-06  0.1368474E-07  0.2827123E-04  0.4378176E-04 -0.1356122E-04 -0.1840958E-06  0.5086040E+04  0.3555164E+03 -0.1563194E-12  0.4187127E-13
  0.1263265E+01  0.7172075E+03  0.5514249E+02  0.7748604E-06 -0.8941458E-07 -0.5289912E-05  0.1765114E-04  0.1126048E-04 -0.6308470E-06  0.5100923E+04  0.3925108E+03  0.1350031E-12 -0.6171028E-13
  0.1302041E+01  0.7192887E+03  0.6071133E+02  0.2980232E-06  0.1406639E-06  0.1523271E-04  0.2470562E-04 -0.3125140E-05  0.6155941E-06  0.5115852E+04  0.4321684E+03 -0.1207923E-12 -0.5088356E-13
  0.1340816E+01  0.7213773E+03  0.6666997E+02  0.3576279E-06 -0.7991888E-07 -0.7569790E-05 -0.1584642E-05 -0.9562093E-05  0.2945058E-06  0.5130843E+04  0.4746039E+03  0.3623768E-12 -0.3572652E-14
  0.1379592E+01  0.7234558E+03  0.7303606E+02  0.7748604E-06  0.7195132E-07  0.1898780E-04  0.3000820E-04  0.1010927E-04  0.2203861E-06  0.5145774E+04  0.5199443E+03 -0.1278977E-12 -0.1286590E-13
  0.1418367E+01  0.7255286E+03  0.7982469E+02  0.1013279E-05  0.7925745E-07 -0.2076849E-04 -0.2311742E-04 -0.2757966E-05  0.6055713E-06  0.5160668E+04  0.5682980E+03  0.2700062E-12  0.1077098E-12
  0.1457143E+01  0.7275933E+03  0.8705673E+02  0.8940697E-06 -0.5428280E-07 -0.1553446E-05 -0.1160295E-04 -0.8743780E-05  0.7219135E-06  0.5175511E+04  0.6198137E+03  0.1705303E-12 -0.1100072E-13
  0.1495918E+01  0.7296268E+03  0.9474507E+02 -0.1251698E-05 -0.1114546E-07  0.2260879E-04  0.3497933E-04  0.3971363E-05  0.1495712E-06  0.5190135E+04  0.6745837E+03  0.5115908E-12  0.6178187E-13
  0.1534694E+01  0.7316752E+03  0.1029137E+03  0.8940697E-06 -0.2286872E-07 -0.2548099E-04 -0.3905406E-04 -0.5238602E-05 -0.3508082E-06  0.5204877E+04  0.7327798E+03  0.1634248E-12  0.4089246E-14
  0.1573469E+01  0.7336832E+03  0.1115796E+03  0.0000000E+00 -0.1172326E-06  0.3745034E-04  0.7646643E-04  0.6135087E-06 -0.1997934E-06  0.5219326E+04  0.7945236E+03 -0.4192202E-12 -0.1481373E-12
  0.1612245E+01  0.7356729E+03  0.1207572E+03 -0.2384186E-06  0.7207296E-07  0.4697219E-04  0.9065952E-04  0.8890347E-06  0.1609794E-05  0.5233659E+04  0.8599188E+03 -0.1207923E-12 -0.2076344E-12
  0.1651020E+01  0.7376730E+03  0.1304738E+03 -0.1549721E-05 -0.3690318E-07  0.4145503E-04  0.7170442E-04 -0.4089874E-05 -0.6900427E-06  0.5248072E+04  0.9291604E+03 -0.5542233E-12  0.7478644E-13
  0.1689796E+01  0.7395833E+03  0.1407370E+03  0.8344650E-06 -0.2517992E-07  0.3590435E-04  0.3942232E-04  0.2497109E-05 -0.1289051E-05  0.5261851E+04  0.1002304E+04  0.9237056E-13  0.7804370E-13
  0.1728571E+01  0.7414515E+03  0.1515722E+03  0.4768372E-06  0.1030309E-06  0.4598126E-04  0.7927100E-04 -0.8199888E-05 -0.1295495E-06  0.5275336E+04  0.1079533E+04  0.2415845E-12 -0.6141119E-13
  0.1767347E+01  0.7432748E+03  0.1629983E+03 -0.9536743E-06  0.1843486E-06 -0.1726672E-04 -0.5399358E-04 -0.1853914E-07 -0.1207692E-05  0.5288511E+04  0.1160980E+04  0.1563194E-12 -0.7377681E-13
  0.1806122E+01  0.7450440E+03  0.1750342E+03 -0.4768372E-06 -0.1345666E-06 -0.8005649E-05 -0.3405544E-04 -0.2930698E-05  0.1800748E-06  0.5301301E+04  0.1246781E+04 -0.8242296E-12  0.1844783E-12
  0.1844898E+01  0.7467529E+03  0.1876991E+03  0.8344650E-06  0.2749112E-07  0.8169562E-05  0.3517317E-04 -0.1644192E-05  0.1372408E-05  0.5313675E+04  0.1337076E+04  0.1350031E-12  0.7209834E-13
  0.1883674E+01  0.7483962E+03  0.2010146E+03  0.5364418E-06  0.7017231E-07  0.1338869E-04  0.5781847E-04 -0.2075190E-05  0.1953641E-05  0.5325584E+04  0.1432021E+04  0.4476419E-12  0.2007646E-13
  0.1922449E+01  0.7499702E+03  0.2150005E+03  0.8344650E-06 -0.2434971E-06 -0.6347895E-05  0.4142137E-05 -0.9864161E-06  0.8666053E-06  0.5337000E+04  0.1531752E+04  0.5400125E-12  0.3551553E-12
  0.1961224E+01  0.7514692E+03  0.2296728E+03  0.2980232E-06  0.5844904E-07  0.1571700E-04  0.5391194E-04  0.5179696E-05  0.2103224E-06  0.5347894E+04  0.1636392E+04 -0.1207923E-12 -0.1254180E-12
  0.2000000E+01  0.7528844E+03  0.2450535E+03  0.7152557E-06  0.1937151E-06  0.4751235E-04  0.1090560E-03 -0.4349771E-05 -0.4533940E-06  0.5358196E+04  0.1746097E+04 -0.8384404E-12 -0.1971756E-12
Zone t="Motion of body    1 in DoF   2",I=    50,F=POINT
  0.1000000E+00  0.9536743E-06 -0.5820766E-11  0.6569987E+03  0.2389740E-01 -0.5471986E-05  0.5514721E-09 -0.4668907E+04 -0.1699707E+00 -0.8195639E-07 -0.2113765E-09  0.5349061E-06  0.1947407E-10
  0.1387755E+00 -0.7152557E-06 -0.1615560E-10  0.6733908E+03  0.6592464E-01  0.1886534E-04 -0.7810852E-09 -0.4787386E+04 -0.4689766E+00  0.9070704E-05 -0.4309907E-09  0.5453272E-06  0.5372097E-10
  0.1775510E+00  0.1311302E-05  0.1136831E-09  0.6727496E+03  0.1379211E+00 -0.4824251E-05 -0.1224354E-08 -0.4782778E+04 -0.9811490E+00  0.2983143E-07 -0.3627081E-09  0.5448650E-06  0.1122929E-09
  0.2163265E+00  0.5364418E-06 -0.3777559E-09  0.6736761E+03  0.2499394E+00 -0.4124362E-05 -0.8200450E-09 -0.4789418E+04 -0.1778035E+01  0.1477107E-05 -0.6851129E-09  0.5455538E-06  0.2035866E-09
  0.2551020E+00  0.5960464E-06 -0.1484889E-09  0.6743496E+03  0.4105344E+00 -0.1504039E-04  0.1088377E-07 -0.4794230E+04 -0.2920515E+01 -0.8070492E-06 -0.5747218E-08  0.5460865E-06  0.3343263E-09
  0.2938775E+00  0.2980232E-06 -0.1710592E-08  0.6752963E+03  0.6288093E+00 -0.1882622E-04  0.1331536E-07 -0.4800980E+04 -0.4473331E+01 -0.1356783E-04  0.5316735E-08  0.5468160E-06  0.5120710E-09
  0.3326530E+00  0.2384186E-06 -0.2246103E-08  0.6772382E+03  0.9155073E+00  0.1042476E-04  0.3446304E-07 -0.4815000E+04 -0.6513069E+01  0.8159841E-06 -0.8675738E-08  0.5481176E-06  0.7450620E-09
  0.3714286E+00 -0.1788139E-06 -0.9512795E-09  0.6768447E+03  0.1274124E+01 -0.9269919E-05  0.1861481E-07 -0.4811985E+04 -0.9064202E+01 -0.3013440E-05  0.8234767E-08  0.5480959E-06  0.1037073E-08
  0.4102041E+00 -0.7748604E-06  0.1910162E-09  0.6783637E+03  0.1721631E+01  0.1770537E-04  0.2765407E-07 -0.4822881E+04 -0.1224801E+02  0.1425564E-05  0.4763093E-08  0.5492124E-06  0.1401281E-08
  0.4489796E+00 -0.1192093E-06 -0.1463507E-08  0.6795541E+03  0.2263312E+01  0.1572678E-04  0.5852394E-08 -0.4831366E+04 -0.1610181E+02 -0.9331212E-05  0.4136224E-08  0.5501354E-06  0.1841229E-08
  0.4877551E+00 -0.1192093E-06  0.1362772E-08  0.6808623E+03  0.2910109E+01  0.8010771E-05 -0.7519378E-07 -0.4840723E+04 -0.2070360E+02 -0.4882138E-05 -0.2346301E-07  0.5511469E-06  0.2367618E-08
  0.5265306E+00  0.5960464E-06  0.0000000E+00  0.6822563E+03  0.3671846E+01 -0.2068933E-05  0.5382575E-07 -0.4850670E+04 -0.2612323E+02  0.5869486E-05  0.3137266E-07  0.5522137E-06  0.2987034E-08
  0.5653061E+00  0.1788139E-06  0.1579447E-08  0.6837236E+03  0.4558842E+01  0.5452894E-06 -0.3098842E-07 -0.4861156E+04 -0.3243428E+02 -0.1937442E-06  0.5416624E-07  0.5533439E-06  0.3707309E-08
  0.6040816E+00 -0.1192093E-06 -0.5625949E-09  0.6852380E+03  0.5581504E+01  0.4404690E-05  0.6093166E-07 -0.4871984E+04 -0.3971081E+02 -0.3496651E-05  0.8695222E-08  0.5545070E-06  0.4538542E-08
  0.6428572E+00  0.8344650E-06 -0.1197415E-08  0.6868036E+03  0.6750333E+01  0.2201647E-05  0.1283619E-06 -0.4883182E+04 -0.4802752E+02 -0.1393809E-04  0.5183643E-07  0.5556964E-06  0.5487495E-08
  0.6816327E+00 -0.5364418E-06  0.6983019E-08  0.6884398E+03  0.8076402E+01  0.8935574E-05  0.1303117E-06 -0.4894869E+04 -0.5746341E+02 -0.1364428E-04 -0.6871678E-07  0.5569398E-06  0.6563543E-08
  0.7204082E+00 -0.1072884E-05 -0.4025595E-08  0.6901163E+03  0.9570940E+01 -0.5463604E-05  0.1614326E-06 -0.4906858E+04 -0.6809844E+02 -0.7909577E-05 -0.3481772E-08  0.5582215E-06  0.7776586E-08
  0.7591837E+00 -0.1490116E-05  0.1696908E-07  0.6918383E+03  0.1124543E+02  0.4898757E-05 -0.1768165E-06 -0.4919180E+04 -0.8001444E+02  0.5823997E-05 -0.5286680E-07  0.5595286E-06  0.9134451E-08
  0.7979592E+00  0.5364418E-06 -0.1040420E-07  0.6936016E+03  0.1311127E+02  0.1019286E-04 -0.1108001E-06 -0.4931795E+04 -0.9329257E+02  0.8314964E-06 -0.4041934E-07  0.5608604E-06  0.1064647E-07
  0.8367347E+00  0.2384186E-06 -0.1558540E-08  0.6954158E+03  0.1518107E+02  0.1468835E-04  0.9774967E-07 -0.4944775E+04 -0.1080228E+03  0.3911788E-05 -0.1231132E-06  0.5622264E-06  0.1232338E-07
  0.8755102E+00  0.5960464E-07  0.6523059E-08  0.6972664E+03  0.1746664E+02  0.4806556E-05 -0.8757717E-07 -0.4958015E+04 -0.1242891E+03 -0.3609224E-05 -0.2949312E-07  0.5636153E-06  0.1417582E-07
  0.9142857E+00  0.1192093E-05  0.1702990E-07  0.6991465E+03  0.1998064E+02  0.1538871E-04 -0.2127141E-06 -0.4971473E+04 -0.1421822E+03  0.2937188E-05  0.2011391E-06  0.5650302E-06  0.1621153E-07
  0.9530612E+00 -0.1490116E-05  0.7100859E-08  0.7010585E+03  0.2273641E+02  0.5512964E-05  0.6695750E-06 -0.4985167E+04 -0.1617967E+03  0.1209439E-04  0.1052786E-06  0.5664609E-06  0.1844135E-07
  0.9918368E+00  0.7152557E-06 -0.2401672E-07  0.7030012E+03  0.2574695E+02  0.7038936E-05 -0.1073824E-06 -0.4999079E+04 -0.1832258E+03  0.3508583E-05 -0.1058255E-06  0.5679067E-06  0.2087518E-07
  0.1030612E+01 -0.1430511E-05  0.5375062E-07  0.7049670E+03  0.2902519E+02  0.5990267E-05 -0.2873798E-06 -0.5013160E+04 -0.2065613E+03 -0.9398849E-05  0.1965407E-07  0.5693640E-06  0.2352511E-07
  0.1069388E+01  0.2384186E-06 -0.1195134E-07  0.7069689E+03  0.3258668E+02  0.1684763E-05  0.2990014E-06 -0.5027495E+04 -0.2319144E+03 -0.2529880E-05  0.3938223E-06  0.5708442E-06  0.2640238E-07
  0.1108163E+01 -0.1192093E-06 -0.5366699E-07  0.7089911E+03  0.3644509E+02 -0.8111820E-06 -0.9576203E-06 -0.5041990E+04 -0.2593828E+03  0.6091141E-05 -0.2205478E-06  0.5723378E-06  0.2951679E-07
  0.1146939E+01  0.4172325E-06 -0.4272680E-08  0.7110258E+03  0.4061430E+02  0.1248531E-04  0.6422372E-06 -0.5056572E+04 -0.2890655E+03 -0.7202820E-05  0.2213553E-06  0.5738361E-06  0.3287872E-07
  0.1185714E+01  0.4768372E-06 -0.2208565E-07  0.7130759E+03  0.4511028E+02 -0.2293056E-04  0.1848189E-05 -0.5071279E+04 -0.3210766E+03  0.3943482E-05  0.1282003E-07  0.5753381E-06  0.3650467E-07
  0.1224490E+01  0.1788139E-06 -0.4561580E-08  0.7151335E+03  0.4994709E+02  0.1559081E-04  0.3603292E-06 -0.5086044E+04 -0.3555164E+03 -0.5020673E-05 -0.3260639E-06  0.5768354E-06  0.4039993E-07
  0.1263265E+01 -0.1192093E-06  0.5176633E-07  0.7172074E+03  0.5514244E+02 -0.2062880E-05 -0.6863818E-06 -0.5100920E+04 -0.3925112E+03  0.9189040E-05 -0.4425920E-07  0.5783382E-06  0.4458244E-07
  0.1302041E+01 -0.1311302E-05  0.1309630E-06  0.7192875E+03  0.6071129E+02  0.6751157E-05  0.1029742E-05 -0.5115848E+04 -0.4321681E+03  0.4854810E-06 -0.6047942E-07  0.5798398E-06  0.4906030E-07
  0.1340816E+01  0.2384186E-06 -0.2996958E-07  0.7213766E+03  0.6667000E+02  0.1445320E-04  0.1421838E-05 -0.5130842E+04 -0.4746040E+03  0.4442467E-05  0.2254792E-06  0.5813404E-06  0.5384968E-07
  0.1379592E+01  0.1192093E-06 -0.1541814E-07  0.7234557E+03  0.7303596E+02  0.2056733E-04 -0.3932670E-05 -0.5145773E+04 -0.5199443E+03  0.4298956E-05  0.3603589E-08  0.5828287E-06  0.5896082E-07
  0.1418367E+01  0.7152557E-06  0.5812213E-07  0.7255286E+03  0.7982474E+02  0.5959999E-05  0.3062805E-05 -0.5160668E+04 -0.5682985E+03  0.6963324E-05  0.2150323E-06  0.5843037E-06  0.6440985E-07
  0.1457143E+01  0.6556511E-06  0.8142420E-07  0.7275933E+03  0.8705672E+02  0.2262322E-04  0.3017784E-06 -0.5175511E+04 -0.6198137E+03  0.1411536E-06  0.5845526E-06  0.5857644E-06  0.7020476E-07
  0.1495918E+01 -0.2384186E-06 -0.8916368E-07  0.7296264E+03  0.9474503E+02 -0.2087187E-04  0.1733642E-06 -0.5190137E+04 -0.6745833E+03 -0.1500855E-05 -0.9277181E-07  0.5871951E-06  0.7636337E-07
  0.1534694E+01 -0.8344650E-06 -0.1372123E-06  0.7316751E+03  0.1029136E+03 -0.4577916E-05  0.9911267E-06 -0.5204876E+04 -0.7327797E+03  0.4157948E-05 -0.1056059E-05  0.5886160E-06  0.8289786E-07
  0.1573469E+01  0.6556511E-06 -0.2110187E-06  0.7336823E+03  0.1115795E+03 -0.3385125E-04 -0.3437297E-06 -0.5219330E+04 -0.7945230E+03 -0.4014699E-05  0.4263878E-06  0.5900092E-06  0.8982683E-07
  0.1612245E+01  0.2384186E-06 -0.1441459E-06  0.7356726E+03  0.1207571E+03 -0.1481641E-04 -0.1927389E-05 -0.5233655E+04 -0.8599179E+03 -0.5172857E-05  0.8586524E-06  0.5913715E-06  0.9715410E-07
  0.1651020E+01  0.4172325E-06 -0.2460212E-07  0.7376724E+03  0.1304740E+03 -0.3064517E-05 -0.5224107E-06 -0.5248074E+04 -0.9291621E+03 -0.8195726E-05 -0.1729837E-06  0.5927249E-06  0.1049043E-06
  0.1689796E+01 -0.4768372E-06  0.0000000E+00  0.7395827E+03  0.1407370E+03 -0.7535797E-05 -0.1094441E-05 -0.5261845E+04 -0.1002304E+04 -0.4863687E-05  0.1093673E-05  0.5940100E-06  0.1130822E-06
  0.1728571E+01 -0.4172325E-06 -0.5151544E-07  0.7414516E+03  0.1515722E+03 -0.2646819E-05 -0.7291649E-06 -0.5275337E+04 -0.1079531E+04  0.2559100E-05 -0.1485999E-05  0.5952507E-06  0.1217056E-06
  0.1767347E+01  0.2384186E-06 -0.2370197E-06  0.7432749E+03  0.1629983E+03 -0.1624040E-04 -0.8554106E-05 -0.5288509E+04 -0.1160978E+04 -0.5361653E-05 -0.6347915E-07  0.5964484E-06  0.1307885E-06
  0.1806122E+01 -0.8940697E-06  0.4036998E-07  0.7450444E+03  0.1750340E+03 -0.3410969E-05 -0.3317908E-06 -0.5301306E+04 -0.1246779E+04  0.3878726E-05  0.1880976E-05  0.5975890E-06  0.1403466E-06
  0.1844898E+01  0.1013279E-05  0.2061834E-06  0.7467532E+03  0.1876991E+03  0.1187436E-05 -0.2704117E-05 -0.5313675E+04 -0.1337075E+04  0.1508073E-05  0.1050918E-06  0.5986716E-06  0.1503902E-06
  0.1883674E+01  0.7748604E-06 -0.1543791E-06  0.7483959E+03  0.2010145E+03  0.7851049E-05  0.1263606E-04 -0.5325578E+04 -0.1432019E+04  0.9149546E-05  0.6560837E-07  0.5996922E-06  0.1609392E-06
  0.1922449E+01 -0.8940697E-06 -0.2291738E-06  0.7499698E+03  0.2150006E+03 -0.1338124E-04 -0.3236632E-05 -0.5337002E+04 -0.1531753E+04 -0.1347592E-04  0.2599033E-05  0.6006451E-06  0.1719965E-06
  0.1961224E+01 -0.1072884E-05 -0.1461226E-07  0.7514691E+03  0.2296728E+03  0.2227584E-04  0.3820649E-05 -0.5347894E+04 -0.1636392E+04  0.2081477E-05  0.1463352E-05  0.6015287E-06  0.1835891E-06
  0.2000000E+01 -0.2384186E-06  0.2235174E-06  0.7528846E+03  0.2450533E+03 -0.2993736E-05 -0.9133946E-06 -0.5358193E+04 -0.1746095E+04 -0.8807983E-06 -0.4327158E-06  0.6023367E-06  0.1957221E-06
Zone t="Motion of body    1 in DoF   3",I=    50,F=POINT
  0.1000000E+00 -0.6575584E-03  0.2360344E-05 -0.2330542E-03  0.1585484E-05  0.8729439E+03  0.1424216E+02  0.1269002E-03  0.3074221E-04 -0.5060785E-02  0.1508864E-04 -0.2842171E-13  0.1065814E-14
  0.1387755E+00 -0.3767014E-04  0.9595132E-06  0.1379251E-03  0.1455813E-05  0.8684488E+03  0.1990313E+02  0.1657754E-03 -0.1245389E-03 -0.3084242E-03  0.1458915E-05 -0.2771117E-12  0.8381505E-14
  0.1775510E+00 -0.3147125E-04  0.1693259E-05 -0.6574392E-04  0.1651985E-04  0.7745444E+03  0.2543436E+02 -0.1284424E-02  0.8593997E-04 -0.1298636E-03  0.1035418E-04 -0.2344791E-12 -0.3784728E-14
  0.2163265E+00 -0.2241135E-04 -0.7220677E-06  0.4345179E-04 -0.3133258E-05  0.7720042E+03  0.3092836E+02 -0.4731454E-03  0.2264286E-03 -0.1660958E-03 -0.6202650E-05 -0.2415845E-12  0.3074185E-14
  0.2551020E+00 -0.3004074E-04  0.8819055E-05 -0.1800060E-04  0.1582108E-04  0.7570814E+03  0.3638928E+02  0.3323669E-02 -0.3502367E-04 -0.1861304E-03  0.5469477E-04  0.7815970E-13  0.5437827E-14
  0.2938775E+00  0.6055832E-04  0.1050988E-05 -0.1108050E-03  0.9835496E-05  0.7364587E+03  0.4181535E+02 -0.3398210E-04  0.4650728E-03  0.3634319E-03  0.8556520E-05  0.1136868E-12 -0.4071845E-13
  0.3326530E+00  0.3671646E-04 -0.1744835E-05  0.3886223E-04  0.1093496E-04  0.7499353E+03  0.4723635E+02  0.6956039E-03  0.2551883E-04  0.1780167E-03  0.6860992E-05 -0.4263256E-13 -0.2954553E-13
  0.3714286E+00 -0.1459122E-03 -0.2656664E-05  0.3618002E-04 -0.1233135E-04  0.7297349E+03  0.5252991E+02  0.6934851E-03 -0.1411487E-03 -0.1034237E-02 -0.3989770E-04  0.7815970E-13 -0.3166990E-13
  0.4102041E+00 -0.5292892E-04 -0.3129609E-05  0.1255870E-03  0.1398544E-04  0.7183618E+03  0.5783568E+02  0.1647649E-03 -0.3784978E-03 -0.3754869E-03 -0.1062699E-04  0.1563194E-12  0.3351877E-13
  0.4489796E+00 -0.2527237E-04 -0.1498631E-05  0.3933907E-04 -0.1271160E-05  0.7087627E+03  0.6307667E+02 -0.1961533E-03 -0.1343058E-03 -0.1537874E-03  0.6560274E-05  0.4263256E-13 -0.2871173E-13
  0.4877551E+00 -0.1907349E-04  0.3139827E-05 -0.4833937E-04 -0.2231312E-04  0.7003257E+03  0.6826392E+02  0.6877445E-04 -0.6341396E-03 -0.1315922E-03  0.3019994E-04 -0.6394885E-13 -0.1732854E-14
  0.5265306E+00 -0.1907349E-04 -0.5900130E-05 -0.1422167E-03 -0.1547215E-04  0.6928161E+03  0.7339631E+02 -0.1180566E-02 -0.3479853E-03 -0.2034307E-03 -0.3313135E-04 -0.2842171E-13 -0.7482450E-14
  0.5653061E+00 -0.1096725E-04 -0.1213015E-05  0.2080202E-04 -0.3022430E-04  0.6857411E+03  0.7846325E+02  0.6142613E-03  0.3888549E-03 -0.5009025E-04  0.8762246E-05 -0.4263256E-13  0.8635994E-13
  0.6040816E+00  0.4196167E-04 -0.1008170E-05 -0.1120567E-04  0.4025479E-04  0.6792056E+03  0.8346609E+02 -0.1288418E-02  0.3776911E-03  0.3424063E-03  0.3938164E-07 -0.4973799E-13  0.1716903E-13
  0.6428572E+00  0.3433228E-04  0.1088211E-04  0.3850460E-04 -0.4691950E-04  0.6730954E+03  0.8840549E+02  0.6667916E-03  0.2804838E-03  0.3050789E-03  0.8663536E-04  0.1065814E-12  0.9135550E-14
  0.6816327E+00  0.4148483E-04  0.5200445E-05  0.2545118E-04 -0.3487954E-04  0.6672858E+03  0.9327630E+02  0.3936701E-05  0.3138715E-03  0.2401844E-03  0.3120140E-04  0.2131628E-13  0.1937317E-13
  0.7204082E+00  0.1811981E-04  0.1219487E-04 -0.9220839E-04  0.1773409E-04  0.6617503E+03  0.9806860E+02  0.4597735E-03 -0.1667523E-03  0.1223385E-03  0.1001259E-03  0.4263256E-13 -0.1023762E-13
  0.7591837E+00  0.1049042E-04 -0.4344084E-05 -0.8761883E-05 -0.3676633E-04  0.6564977E+03  0.1027887E+03 -0.5085431E-03 -0.1799346E-03  0.4927814E-04 -0.3585637E-04 -0.7815970E-13 -0.5394325E-14
  0.7979592E+00 -0.1478195E-04 -0.6087946E-05 -0.3010035E-04 -0.3260380E-04  0.6515066E+03  0.1074344E+03 -0.7246556E-03  0.4804386E-03 -0.6516278E-04 -0.3991721E-04 -0.4973799E-13  0.1133968E-13
  0.8367347E+00 -0.2288818E-04 -0.1935083E-04 -0.9179115E-05 -0.2368981E-05  0.6467809E+03  0.1120012E+03  0.6613322E-05 -0.4934851E-03 -0.8618087E-04 -0.1401400E-03  0.7105427E-13  0.3864482E-13
  0.8755102E+00  0.3480911E-04  0.4905341E-05  0.7194281E-04  0.4409588E-04  0.6421587E+03  0.1164814E+03 -0.1948746E-03 -0.3581829E-03  0.2360046E-03  0.6328183E-04  0.9237056E-13  0.1088653E-12
  0.9142857E+00 -0.2717972E-04  0.6757464E-05 -0.3826618E-04 -0.8937291E-05  0.6377531E+03  0.1208735E+03  0.5882531E-03 -0.6062282E-03 -0.2129972E-03  0.1420038E-04 -0.9237056E-13  0.6496391E-14
  0.9530612E+00 -0.2288818E-04 -0.3408413E-05  0.5316734E-04 -0.3135739E-04  0.6334539E+03  0.1251830E+03 -0.4617432E-03 -0.5717468E-04 -0.1415685E-03 -0.5951319E-04  0.7105427E-14  0.9142075E-13
  0.9918368E+00  0.1597404E-04 -0.4847683E-05 -0.1162887E-03 -0.4049588E-05  0.6294050E+03  0.1294051E+03 -0.4853653E-03 -0.1874109E-03  0.1534000E-03 -0.7256467E-04 -0.9237056E-13 -0.1761856E-14
  0.1030612E+01 -0.2598763E-04  0.1351444E-04  0.2294779E-04 -0.3006963E-04  0.6254974E+03  0.1335397E+03 -0.9793518E-03  0.3057066E-03 -0.1775771E-03  0.7273034E-04 -0.5329071E-13 -0.7322940E-14
  0.1069388E+01 -0.4935265E-04  0.1223817E-04  0.2831221E-04 -0.2696222E-04  0.6216074E+03  0.1375822E+03  0.1134110E-02  0.5202121E-03 -0.2779737E-03  0.9610769E-04 -0.4263256E-13  0.4179151E-13
  0.1108163E+01 -0.1454353E-04 -0.2100443E-04  0.2789497E-04  0.2747750E-04  0.6179501E+03  0.1415148E+03  0.9151576E-03  0.5364738E-04 -0.9915233E-04 -0.1209819E-03  0.6394885E-13 -0.8661371E-13
  0.1146939E+01 -0.3075600E-04 -0.8340271E-05  0.7748604E-06 -0.6641454E-04  0.6144367E+03  0.1453555E+03 -0.3885031E-03 -0.7861527E-03 -0.2099052E-03 -0.1228609E-04  0.2486900E-13  0.5297169E-13
  0.1185714E+01 -0.1573563E-04  0.1611369E-04  0.5030632E-04  0.6388937E-04  0.6108942E+03  0.1491036E+03  0.4981225E-03 -0.2178526E-03 -0.8115917E-04  0.1237481E-03  0.1527667E-12  0.9056883E-13
  0.1224490E+01  0.3814697E-05  0.1620273E-04  0.1162291E-04 -0.5824225E-04  0.6075524E+03  0.1527508E+03 -0.9342646E-03  0.6081220E-03 -0.8381903E-05  0.1310850E-03  0.2842171E-13 -0.5437827E-13
  0.1263265E+01  0.6008148E-04  0.1099329E-04  0.8642673E-05 -0.9724541E-04  0.6043871E+03  0.1563006E+03 -0.4565502E-03 -0.1001815E-02  0.4543811E-03  0.7434587E-04  0.2842171E-13  0.8751639E-13
  0.1302041E+01 -0.1263618E-04 -0.1257244E-04 -0.5364418E-05  0.1305361E-03  0.6013128E+03  0.1597442E+03  0.4099626E-03 -0.4208339E-03 -0.1056716E-03 -0.2344237E-04 -0.2131628E-13  0.1387733E-13
  0.1340816E+01 -0.1144409E-04 -0.3244707E-04  0.1370907E-04  0.4283652E-04  0.5982254E+03  0.1630836E+03 -0.5216599E-03 -0.2811891E-03 -0.7766485E-04 -0.2730766E-03  0.7105427E-14  0.7621659E-13
  0.1379592E+01 -0.8106232E-05  0.2960283E-05 -0.2175570E-05  0.7766631E-04  0.5952056E+03  0.1663020E+03 -0.5577970E-04 -0.1239983E-03 -0.2778322E-04  0.2458551E-04 -0.6039613E-13 -0.4901295E-13
  0.1418367E+01  0.2670288E-04 -0.1014495E-05 -0.1534820E-04  0.6708351E-04  0.5923997E+03  0.1694148E+03  0.7160194E-04  0.5940886E-03  0.1702607E-03 -0.4317153E-04  0.0000000E+00 -0.1763669E-13
  0.1457143E+01 -0.3242493E-04  0.2605575E-05  0.2241135E-04  0.1154269E-03  0.5896011E+03  0.1724211E+03 -0.4452653E-04  0.3334150E-03 -0.2121776E-03  0.4422148E-04  0.3197442E-13 -0.4659130E-13
  0.1495918E+01  0.3194809E-04 -0.1747608E-04  0.6508827E-04 -0.2590205E-04  0.5865134E+03  0.1753376E+03 -0.2465956E-03  0.8155778E-04  0.2469942E-03 -0.1413621E-03 -0.1776357E-13 -0.9300497E-13
  0.1534694E+01  0.1144409E-04  0.4738399E-04  0.7122755E-04 -0.7638153E-04  0.5841528E+03  0.1781136E+03 -0.2921186E-03  0.2488815E-03  0.5813316E-04  0.2966602E-03  0.5684342E-13  0.9814190E-13
  0.1573469E+01 -0.7629395E-05 -0.5814737E-05  0.1055002E-04  0.1927304E-04  0.5813679E+03  0.1808087E+03 -0.1247451E-03  0.6188801E-03 -0.8035824E-04 -0.5111781E-04  0.7460699E-13 -0.2515539E-13
  0.1612245E+01 -0.3004074E-04  0.2248676E-04 -0.1123548E-04  0.7433125E-04  0.5789196E+03  0.1833673E+03 -0.1381189E-03  0.1349444E-02 -0.2298653E-03  0.1516340E-03 -0.1421085E-13  0.1031012E-12
  0.1651020E+01 -0.1502037E-04  0.3208117E-04 -0.2706051E-04 -0.6947639E-04  0.5769369E+03  0.1857668E+03  0.6652158E-04  0.7251129E-04 -0.1132935E-03  0.2243160E-03  0.3552714E-14  0.2346241E-13
  0.1689796E+01 -0.4410744E-04  0.1248924E-04  0.8106232E-05 -0.3044253E-04  0.5744790E+03  0.1880779E+03 -0.1980979E-03 -0.2336559E-04 -0.3310442E-03  0.8082283E-04  0.1776357E-13 -0.2761546E-12
  0.1728571E+01 -0.1454353E-04 -0.3503050E-05 -0.3489852E-04  0.7495497E-05  0.5721190E+03  0.1902701E+03  0.1308322E-04 -0.2249943E-03 -0.9356067E-04 -0.9770387E-04 -0.2486900E-13  0.5527007E-13
  0.1767347E+01  0.1549721E-04  0.1643337E-04 -0.9596348E-05  0.8532708E-05  0.5698434E+03  0.1923479E+03 -0.2669990E-03  0.1123405E-03  0.1003779E-03  0.6004499E-04 -0.1421085E-13 -0.4395214E-13
  0.1806122E+01 -0.3409386E-04 -0.1356431E-04 -0.2831221E-05  0.3251129E-04  0.5676063E+03  0.1943054E+03  0.3068559E-03  0.3948664E-03 -0.2423637E-03 -0.5555078E-04  0.6750156E-13  0.2374155E-12
  0.1844898E+01 -0.9536743E-05 -0.3738793E-05 -0.6943941E-05  0.3032271E-04  0.5653979E+03  0.1961430E+03 -0.4213136E-03 -0.7689293E-03 -0.2490729E-04  0.2854953E-04 -0.1421085E-13  0.4915796E-13
  0.1883674E+01 -0.1907349E-04  0.4580848E-04 -0.2452731E-04 -0.6632687E-04  0.5633362E+03  0.1978631E+03  0.3166497E-05  0.7754281E-03 -0.1319908E-03  0.2902607E-03 -0.2131628E-13  0.3011469E-13
  0.1922449E+01  0.3862381E-04  0.1558382E-04  0.2703071E-04  0.5230891E-04  0.5613582E+03  0.1994631E+03 -0.2474114E-03  0.6302316E-03  0.2420284E-03 -0.6266470E-07 -0.1065814E-13 -0.1092786E-12
  0.1961224E+01  0.3814697E-05 -0.4909720E-05  0.1356006E-04  0.4228788E-04  0.5594083E+03  0.2009376E+03 -0.2175653E-03  0.4449986E-03  0.1345947E-04 -0.6510675E-04 -0.2486900E-13 -0.2787068E-13
  0.2000000E+01 -0.2384186E-06 -0.7152557E-05  0.1007318E-04  0.9658933E-04  0.5574799E+03  0.2022780E+03 -0.1216307E-04 -0.1399412E-02 -0.3919005E-05 -0.9817444E-04 -0.2131628E-13 -0.3907985E-13
Zone t="Motion of body    1 in DoF   4",I=    50,F=POINT
  0.1000000E+00  0.4768372E-05  0.2677552E-09 -0.4667104E+04 -0.1699002E+00 -0.2398342E-04  0.1675471E-08  0.3318909E+05  0.1208399E+01  0.2966239E-04  0.2249817E-08 -0.3789109E-05 -0.1378227E-09