VARIABLES="w (rad/s)"  
"A   1   1" "B   1   1"
Zone t="Motion of body    1 in DoF   1",I=    50,F=POINT
  0.2283000E+01  0.5656212E+03  0.2312802E+03
  0.2417204E+01  0.5599714E+03  0.2319044E+03
  0.2551408E+01  0.5548439E+03  0.2305711E+03
  0.2685612E+01  0.5504063E+03  0.2275759E+03
  0.2819816E+01  0.5466259E+03  0.2230703E+03
  0.2954021E+01  0.5433238E+03  0.2168307E+03
  0.3088224E+01  0.5403179E+03  0.2088136E+03
  0.3222429E+01  0.5379645E+03  0.1994758E+03
  0.3356633E+01  0.5368255E+03  0.1891571E+03
  0.3490837E+01  0.5355450E+03  0.1774087E+03
  0.3625041E+01  0.5346109E+03  0.1643139E+03
  0.3759245E+01  0.5344336E+03  0.1507132E+03
  0.3893449E+01  0.5355994E+03  0.1375676E+03
  0.4027653E+01  0.5358169E+03  0.1240815E+03
  0.4161857E+01  0.5363907E+03  0.1090598E+03
  0.4296062E+01  0.5381760E+03  0.9496883E+02
  0.4430265E+01  0.5398273E+03  0.8408022E+02
  0.4564469E+01  0.5419540E+03  0.7310468E+02
  0.4698673E+01  0.5438167E+03  0.5878287E+02
  0.4832878E+01  0.5454453E+03  0.4893898E+02
  0.4967082E+01  0.5474258E+03  0.4112657E+02
  0.5101286E+01  0.5497901E+03  0.3677301E+02
  0.5235490E+01  0.5513860E+03  0.2964172E+02
  0.5369694E+01  0.5536331E+03  0.2020675E+02
  0.5503898E+01  0.5552383E+03  0.1473271E+02
  0.5638103E+01  0.5565036E+03  0.1365312E+02
  0.5772306E+01  0.5576263E+03  0.1394493E+02
  0.5906510E+01  0.5595853E+03  0.9558689E+01
  0.6040714E+01  0.5611626E+03  0.4328249E+01
  0.6174919E+01  0.5627097E+03  0.1192892E+01
  0.6309123E+01  0.5632634E+03  0.9553927E+00
  0.6443326E+01  0.5636558E+03  0.2362398E+01
  0.6577531E+01  0.5645854E+03  0.2929398E+01
  0.6711735E+01  0.5661478E+03 -0.3835553E+00
  0.6845939E+01  0.5668630E+03 -0.1488852E+01
  0.6980143E+01  0.5677298E+03 -0.2601487E+01
  0.7114347E+01  0.5680010E+03 -0.2431526E+01
  0.7248551E+01  0.5684606E+03 -0.1821536E+01
  0.7382755E+01  0.5693083E+03 -0.8892630E+00
  0.7516960E+01  0.5702377E+03 -0.1509172E+01
  0.7651164E+01  0.5706750E+03 -0.1350082E+01
  0.7785367E+01  0.5707745E+03 -0.1283816E+01
  0.7919572E+01  0.5713887E+03 -0.1338656E+01
  0.8053776E+01  0.5716054E+03 -0.1255617E+01
  0.8187980E+01  0.5713314E+03 -0.9969718E+00
  0.8322184E+01  0.5721432E+03 -0.6457239E+00
  0.8456388E+01  0.5728300E+03 -0.3671459E+00
  0.8590592E+01  0.5731182E+03 -0.1487312E+00
  0.8724796E+01  0.5732421E+03  0.1777026E-02
  0.8859000E+01  0.5733580E+03  0.8249938E-01
