VARIABLES="w (rad/s)"  
"A   1   1" "B   1   1"
"A   1   2" "B   1   2"
"A   1   3" "B   1   3"
Zone t="Motion of body    1 in DoF   1",I=    50,F=POINT
  0.2283000E+01  0.7598152E+03  0.3803652E+03 -0.1398847E-04  0.1509609E-06 -0.2892259E+03 -0.1409933E+03
  0.2417204E+01  0.7604455E+03  0.4598280E+03 -0.2311915E-04 -0.1822344E-04 -0.2884968E+03 -0.1694684E+03
  0.2551408E+01  0.7588041E+03  0.5496902E+03 -0.1318380E-04 -0.1406939E-04 -0.2868575E+03 -0.2013136E+03
  0.2685612E+01  0.7544931E+03  0.6500211E+03 -0.4436821E-05 -0.8971701E-05 -0.2841708E+03 -0.2364237E+03
  0.2819816E+01  0.7470381E+03  0.7604050E+03  0.1853332E-04  0.9117760E-04 -0.2802986E+03 -0.2745104E+03
  0.2954021E+01  0.7360874E+03  0.8799579E+03  0.2295151E-04  0.1313397E-03 -0.2751413E+03 -0.3150992E+03
  0.3088224E+01  0.7212853E+03  0.1007149E+04  0.7189810E-06  0.2096701E-04 -0.2685981E+03 -0.3574686E+03
  0.3222429E+01  0.7024069E+03  0.1139693E+04 -0.1230463E-04 -0.4622926E-04 -0.2606353E+03 -0.4006461E+03
  0.3356633E+01  0.6793981E+03  0.1274657E+04  0.9547919E-05  0.3313674E-05 -0.2513051E+03 -0.4434737E+03
  0.3490837E+01  0.6523912E+03  0.1408507E+04 -0.6552786E-05 -0.3939677E-04 -0.2407061E+03 -0.4845873E+03
  0.3625041E+01  0.6217205E+03  0.1537157E+04  0.4921108E-05 -0.4663045E-04 -0.2290128E+03 -0.5224844E+03
  0.3759245E+01  0.5879804E+03  0.1656365E+04 -0.4986301E-05  0.1503079E-03 -0.2164918E+03 -0.5557000E+03
  0.3893449E+01  0.5518730E+03  0.1761470E+04 -0.5550683E-05  0.7549451E-05 -0.2034623E+03 -0.5827614E+03
  0.4027653E+01  0.5145900E+03  0.1850702E+04 -0.1150370E-04 -0.7772164E-05 -0.1903858E+03 -0.6032168E+03
  0.4161857E+01  0.4769171E+03  0.1919435E+04 -0.1156516E-04  0.8100906E-05 -0.1775343E+03 -0.6156912E+03
  0.4296062E+01  0.4400340E+03  0.1966853E+04 -0.4414469E-05  0.2094133E-04 -0.1653244E+03 -0.6202327E+03
  0.4430265E+01  0.4048127E+03  0.1992481E+04 -0.1581758E-04 -0.2794957E-04 -0.1540595E+03 -0.6171060E+03
  0.4564469E+01  0.3721206E+03  0.1997330E+04  0.1914799E-05  0.1431735E-04 -0.1439947E+03 -0.6069922E+03
  0.4698673E+01  0.3424679E+03  0.1982786E+04 -0.4136004E-05 -0.3121825E-04 -0.1352503E+03 -0.5906439E+03
  0.4832878E+01  0.3162554E+03  0.1951361E+04  0.9681098E-05  0.1174303E-04 -0.1279040E+03 -0.5692126E+03
  0.4967082E+01  0.2936171E+03  0.1905846E+04 -0.1269393E-05 -0.1306832E-04 -0.1219417E+03 -0.5439108E+03
  0.5101286E+01  0.2745249E+03  0.1849486E+04 -0.3769062E-05  0.3310932E-04 -0.1172962E+03 -0.5160346E+03
  0.5235490E+01  0.2588203E+03  0.1784859E+04 -0.9257346E-06  0.1051738E-04 -0.1138612E+03 -0.4865088E+03
  0.5369694E+01  0.2462478E+03  0.1714735E+04  0.9972602E-05  0.4928404E-05 -0.1114868E+03 -0.4562147E+03
  0.5503898E+01  0.2364705E+03  0.1641019E+04  0.1183525E-04  0.6945601E-05 -0.1100257E+03 -0.4258344E+03
  0.5638103E+01  0.2291416E+03  0.1565832E+04  0.2353452E-05  0.1124741E-04 -0.1093344E+03 -0.3961162E+03
  0.5772306E+01  0.2239191E+03  0.1490744E+04 -0.2397224E-05  0.2532039E-05 -0.1092718E+03 -0.3674944E+03
  0.5906510E+01  0.2204620E+03  0.1416821E+04 -0.1009554E-04  0.1365590E-05 -0.1097085E+03 -0.3401696E+03
  0.6040714E+01  0.2185287E+03  0.1344777E+04 -0.2292916E-04  0.1096198E-04 -0.1105500E+03 -0.3142264E+03
  0.6174919E+01  0.2178300E+03  0.1275082E+04 -0.1301989E-04  0.6530080E-05 -0.1116986E+03 -0.2897777E+03
  0.6309123E+01  0.2180790E+03  0.1208107E+04  0.1075864E-04  0.2056540E-07 -0.1130560E+03 -0.2669619E+03
  0.6443326E+01  0.2191781E+03  0.1144305E+04 -0.8525327E-05 -0.7313494E-06 -0.1145869E+03 -0.2458059E+03
  0.6577531E+01  0.2209104E+03  0.1083770E+04  0.1817010E-04  0.9625168E-06 -0.1162255E+03 -0.2262057E+03
  0.6711735E+01  0.2231145E+03  0.1026332E+04  0.5755574E-06 -0.7971320E-05 -0.1179323E+03 -0.2079830E+03
  0.6845939E+01  0.2257473E+03  0.9720464E+03  0.1474842E-04  0.2061767E-04 -0.1196862E+03 -0.1911343E+03
  0.6980143E+01  0.2286781E+03  0.9206339E+03 -0.1424737E-04  0.9997770E-05 -0.1214574E+03 -0.1755372E+03
  0.7114347E+01  0.2318480E+03  0.8722325E+03  0.8353963E-05 -0.4472797E-05 -0.1232263E+03 -0.1612313E+03
  0.7248551E+01  0.2351403E+03  0.8263976E+03 -0.2288818E-04  0.1434195E-04 -0.1249539E+03 -0.1480332E+03
  0.7382755E+01  0.2384785E+03  0.7832524E+03 -0.3178231E-04  0.2038653E-05 -0.1266282E+03 -0.1358866E+03
  0.7516960E+01  0.2419550E+03  0.7427271E+03 -0.6822869E-05  0.1053411E-04 -0.1282916E+03 -0.1246232E+03
  0.7651164E+01  0.2454352E+03  0.7043291E+03 -0.7674098E-05 -0.7076267E-05 -0.1298953E+03 -0.1141936E+03
  0.7785367E+01  0.2489502E+03  0.6681196E+03 -0.2207235E-05  0.1857196E-05 -0.1314607E+03 -0.1045070E+03
  0.7919572E+01  0.2524543E+03  0.6333362E+03 -0.4014000E-05  0.3543667E-05 -0.1329548E+03 -0.9542722E+02
  0.8053776E+01  0.2559231E+03  0.6001525E+03  0.8629635E-05  0.1654728E-04 -0.1343831E+03 -0.8685468E+02
  0.8187980E+01  0.2593527E+03  0.5677795E+03  0.8679926E-05  0.1492411E-04 -0.1357426E+03 -0.7841240E+02
  0.8322184E+01  0.2628038E+03  0.5346198E+03  0.3129616E-04  0.1204074E-06 -0.1370423E+03 -0.6939610E+02
  0.8456388E+01  0.2663546E+03  0.4965299E+03 -0.1686811E-04  0.4000510E-05 -0.1382462E+03 -0.5791719E+02
  0.8590592E+01  0.2705195E+03  0.4293775E+03  0.1521967E-04 -0.8974062E-04 -0.1391695E+03 -0.3323638E+02
  0.8724796E+01  0.2450829E+03  0.7688364E+03  0.6780028E-05  0.4925500E-03 -0.1345283E+03 -0.2152919E+03
  0.8859000E+01  0.2715068E+03  0.5173820E+03 -0.2065301E-04  0.4838089E-04 -0.1415528E+03 -0.8502177E+02
Zone t="Motion of body    1 in DoF   2",I=    50,F=POINT
  0.2283000E+01  0.3671646E-04  0.4408908E-04  0.5448720E+03  0.2080667E+03 -0.1725554E-04 -0.2359880E-04
  0.2417204E+01  0.4959106E-04  0.4178221E-04  0.5398047E+03  0.2085305E+03 -0.1908094E-04 -0.1347791E-04
  0.2551408E+01  0.1096725E-04 -0.4866425E-05  0.5351862E+03  0.2072185E+03 -0.4339963E-05  0.4394753E-05
  0.2685612E+01 -0.9298325E-05 -0.2145005E-04  0.5312013E+03  0.2044018E+03  0.7621944E-05  0.1004095E-04
  0.2819816E+01 -0.9059906E-05 -0.4706076E-05  0.5278248E+03  0.2002301E+03  0.6552786E-05 -0.2362230E-05
  0.2954021E+01 -0.4434586E-04 -0.8486735E-04  0.5248743E+03  0.1944894E+03  0.2151355E-04  0.3967290E-04
  0.3088224E+01 -0.3051758E-04 -0.5945542E-04  0.5221844E+03  0.1871354E+03  0.2010912E-04  0.2942284E-04
  0.3222429E+01  0.9298325E-05  0.2881076E-04  0.5200828E+03  0.1785961E+03 -0.2127141E-05 -0.1336249E-04
  0.3356633E+01  0.1072884E-04  0.1280454E-04  0.5191149E+03  0.1692179E+03  0.1363456E-05  0.9372071E-05
  0.3490837E+01 -0.4768372E-06  0.4098981E-04  0.5179939E+03  0.1585303E+03 -0.1922250E-05 -0.1053111E-04
  0.3625041E+01 -0.1597404E-04 -0.1168935E-03  0.5171741E+03  0.1466146E+03  0.7938594E-05  0.4610885E-04
  0.3759245E+01 -0.1668930E-04 -0.8985145E-04  0.5170421E+03  0.1342728E+03  0.1012906E-04  0.3357526E-04
  0.3893449E+01  0.1335144E-04  0.3074896E-04  0.5181601E+03  0.1224536E+03 -0.4634261E-05 -0.7127015E-05
  0.4027653E+01  0.2694130E-04  0.5317480E-04  0.5183939E+03  0.1102751E+03 -0.9529293E-05 -0.3100519E-04
  0.4161857E+01  0.2121925E-04  0.5519469E-04  0.5189276E+03  0.9664117E+02 -0.1211464E-04 -0.2668018E-04
  0.4296062E+01  0.3337860E-05  0.4737206E-05  0.5205593E+03  0.8393364E+02  0.1989305E-05 -0.6145065E-05
  0.4430265E+01  0.1907349E-05  0.1320322E-04  0.5220934E+03  0.7427814E+02 -0.4064292E-05 -0.7436095E-05
  0.4564469E+01 -0.1668930E-05 -0.5033176E-05  0.5240504E+03  0.6452506E+02  0.8970499E-05 -0.6589571E-05
  0.4698673E+01  0.8344650E-05  0.2961664E-04  0.5257319E+03  0.5148641E+02 -0.3576279E-05 -0.1137372E-04
  0.4832878E+01 -0.5722046E-05 -0.3701596E-04  0.5272086E+03  0.4263960E+02  0.1120567E-04  0.1490833E-04
  0.4967082E+01  0.2074242E-04  0.2135341E-04  0.5289998E+03  0.3574999E+02 -0.1281872E-04 -0.3030001E-05
  0.5101286E+01 -0.2360344E-04 -0.6620914E-04  0.5311492E+03  0.3219400E+02  0.1361594E-04  0.1080780E-04
  0.5235490E+01 -0.3814697E-05 -0.2340446E-05  0.5325972E+03  0.2577164E+02  0.8780509E-05  0.2739358E-05
  0.5369694E+01 -0.1120567E-04 -0.1368251E-04  0.5346271E+03  0.1711942E+02  0.5573034E-05  0.1627330E-05
  0.5503898E+01 -0.4291534E-05 -0.8775549E-05  0.5360659E+03  0.1216757E+02 -0.1847744E-05  0.2862978E-05
  0.5638103E+01 -0.1907349E-04 -0.2839683E-04  0.5371814E+03  0.1147658E+02  0.1726672E-04  0.5913653E-05
  0.5772306E+01  0.2479553E-04 -0.1290211E-05  0.5381777E+03  0.1203787E+02 -0.1474470E-04  0.2209150E-07
  0.5906510E+01  0.7152557E-05 -0.1831788E-05  0.5399544E+03  0.8041114E+01  0.4321337E-06 -0.1299838E-05
  0.6040714E+01  0.1311302E-04 -0.1738107E-04  0.5413950E+03  0.3112411E+01 -0.7756054E-05  0.2083566E-05
  0.6174919E+01 -0.2384186E-05 -0.7313632E-05  0.5427900E+03  0.2636222E+00  0.5193055E-05  0.2579819E-05
  0.6309123E+01 -0.2384186E-06 -0.3316758E-04  0.5432551E+03  0.1221437E+00  0.1192093E-06  0.7426393E-05
  0.6443326E+01  0.1645088E-04  0.1414692E-05  0.5435757E+03  0.1543325E+01 -0.1892447E-05  0.6244130E-06
  0.6577531E+01 -0.2121925E-04 -0.4076416E-04  0.5444113E+03  0.2244997E+01  0.1497194E-04  0.7423564E-05
  0.6711735E+01  0.1740456E-04 -0.4169902E-04  0.5458765E+03 -0.1407644E+01  0.2793968E-06  0.1164093E-04
  0.6845939E+01 -0.9298325E-05  0.2394105E-05  0.5466466E+03 -0.3241344E+01  0.1899898E-06 -0.6231974E-05
  0.6980143E+01 -0.4053116E-05  0.2409427E-04  0.5471257E+03 -0.2232719E+01  0.5733222E-05 -0.8857191E-05
  0.7114347E+01 -0.4053116E-05  0.6360722E-05  0.5474415E+03 -0.2245155E+01  0.4660338E-05 -0.2591886E-05
  0.7248551E+01  0.1144409E-04 -0.3834420E-05  0.5478582E+03 -0.1727102E+01 -0.1476705E-04  0.5963395E-06
  0.7382755E+01  0.1525879E-04  0.1088771E-04  0.5486306E+03 -0.8522874E+00 -0.5356967E-05 -0.1826627E-05
  0.7516960E+01  0.3075600E-04 -0.4067415E-05  0.5495093E+03 -0.1527936E+01 -0.1133233E-04  0.3944209E-06
  0.7651164E+01 -0.9059906E-05 -0.2608007E-05  0.5499088E+03 -0.1391439E+01  0.4019588E-05  0.7176313E-06
  0.7785367E+01  0.5483627E-05 -0.2004815E-05  0.5500010E+03 -0.1342754E+01 -0.5595386E-05  0.3455158E-06
  0.7919572E+01  0.2598763E-04  0.8352953E-06  0.5505508E+03 -0.1401879E+01 -0.9037554E-05 -0.1739442E-06
  0.8053776E+01 -0.1430511E-05  0.2795872E-05  0.5507277E+03 -0.1322374E+01  0.3457069E-05 -0.5456000E-06
  0.8187980E+01 -0.2241135E-04 -0.2987349E-05  0.5504572E+03 -0.1066215E+01  0.1320615E-04  0.3640876E-06
  0.8322184E+01 -0.3457069E-04 -0.2850297E-05  0.5511949E+03 -0.7077127E+00  0.1795590E-04  0.3378131E-06
  0.8456388E+01  0.7629395E-05 -0.1549529E-05  0.5518400E+03 -0.4230159E+00 -0.7003546E-06  0.8573587E-08
  0.8590592E+01 -0.4053116E-05 -0.1057081E-05  0.5521006E+03 -0.1944175E+00  0.3747642E-05 -0.1136747E-06
  0.8724796E+01  0.7629395E-05 -0.3816493E-05  0.5522150E+03 -0.3320308E-01 -0.1721084E-05  0.9123842E-06
  0.8859000E+01  0.4196167E-04 -0.3036087E-05  0.5523127E+03  0.5451752E-01 -0.1534820E-04  0.4535124E-06
Zone t="Motion of body    1 in DoF   3",I=    50,F=POINT
  0.2283000E+01 -0.2897940E+03 -0.1411424E+03  0.8091331E-05  0.1671360E-04  0.1339365E+03  0.5231850E+02
  0.2417204E+01 -0.2890628E+03 -0.1696448E+03  0.2647657E-04  0.4710066E-04  0.1333690E+03  0.6252193E+02
  0.2551408E+01 -0.2874262E+03 -0.2015257E+03  0.2473406E-04  0.1870651E-04  0.1324494E+03  0.7380495E+02
  0.2685612E+01 -0.2847372E+03 -0.2366752E+03  0.4684553E-06  0.1353134E-04  0.1311272E+03  0.8608306E+02
  0.2819816E+01 -0.2808572E+03 -0.2748007E+03 -0.2180226E-05 -0.4970268E-04  0.1293669E+03  0.9920456E+02
  0.2954021E+01 -0.2756993E+03 -0.3154329E+03 -0.2240762E-04 -0.6209749E-04  0.1271484E+03  0.1129509E+03
  0.3088224E+01 -0.2691514E+03 -0.3578533E+03 -0.9257346E-06 -0.4130127E-05  0.1244438E+03  0.1270133E+03
  0.3222429E+01 -0.2611802E+03 -0.4010786E+03  0.8580275E-05  0.3016276E-04  0.1212517E+03  0.1409955E+03
  0.3356633E+01 -0.2518367E+03 -0.4439489E+03 -0.4469417E-05  0.7424506E-06  0.1176248E+03  0.1544568E+03
  0.3490837E+01 -0.2412321E+03 -0.4851132E+03 -0.9708107E-05 -0.6663119E-05  0.1136159E+03  0.1668989E+03
  0.3625041E+01 -0.2295303E+03 -0.5230638E+03 -0.1070276E-04  0.2707618E-05  0.1093018E+03  0.1777922E+03
  0.3759245E+01 -0.2169945E+03 -0.5563098E+03 -0.6225891E-05 -0.5551821E-04  0.1047870E+03  0.1866413E+03
  0.3893449E+01 -0.2039500E+03 -0.5834275E+03  0.6041490E-05  0.2024428E-04  0.1002190E+03  0.1930233E+03
  0.4027653E+01 -0.1908605E+03 -0.6038680E+03  0.1562573E-04  0.1374008E-04  0.9576040E+02  0.1968269E+03
  0.4161857E+01 -0.1780008E+03 -0.6163848E+03  0.1375470E-04  0.1081800E-04  0.9150461E+02  0.1977234E+03
  0.4296062E+01 -0.1657783E+03 -0.6209169E+03 -0.1521781E-05 -0.7882007E-06  0.8758173E+02  0.1958137E+03
  0.4430265E+01 -0.1544960E+03 -0.6177480E+03  0.1287088E-04  0.1614919E-04  0.8410233E+02  0.1913455E+03
  0.4564469E+01 -0.1444224E+03 -0.6076249E+03  0.7208437E-06 -0.1315895E-04  0.8113585E+02  0.1846868E+03
  0.4698673E+01 -0.1356783E+03 -0.5913143E+03  0.9922311E-05  0.1149023E-04  0.7869269E+02  0.1761799E+03
  0.4832878E+01 -0.1283313E+03 -0.5698566E+03 -0.7838011E-05 -0.1217399E-04  0.7677118E+02  0.1662716E+03
  0.4967082E+01 -0.1223642E+03 -0.5444785E+03  0.6221235E-06  0.6938933E-08  0.7534675E+02  0.1554365E+03
  0.5101286E+01 -0.1177144E+03 -0.5165184E+03 -0.3825873E-05 -0.1510562E-04  0.7439169E+02  0.1442048E+03
  0.5235490E+01 -0.1142803E+03 -0.4870329E+03 -0.4285946E-05  0.5131916E-06  0.7383839E+02  0.1328779E+03
  0.5369694E+01 -0.1119146E+03 -0.4567775E+03 -0.2009794E-04 -0.1494024E-06  0.7361574E+02  0.1216585E+03
  0.5503898E+01 -0.1104652E+03 -0.4263703E+03 -0.1734309E-04 -0.6244633E-05  0.7366152E+02  0.1107386E+03
  0.5638103E+01 -0.1097790E+03 -0.3965444E+03 -0.1116283E-04 -0.5981422E-05  0.7393259E+02  0.1004340E+03
  0.5772306E+01 -0.1097199E+03 -0.3678489E+03  0.6932765E-05 -0.1691722E-05  0.7437495E+02  0.9087029E+02
  0.5906510E+01 -0.1101607E+03 -0.3406019E+03  0.1380034E-04  0.9970321E-08  0.7493731E+02  0.8201009E+02
  0.6040714E+01 -0.1110130E+03 -0.3147886E+03  0.1597404E-04 -0.5284786E-06  0.7559059E+02  0.7377154E+02
  0.6174919E+01 -0.1121814E+03 -0.2903904E+03  0.1175702E-04  0.9089923E-06  0.7630286E+02  0.6613537E+02
  0.6309123E+01 -0.1135551E+03 -0.2675026E+03 -0.1360755E-04 -0.1811775E-05  0.7704239E+02  0.5922707E+02
  0.6443326E+01 -0.1151053E+03 -0.2462801E+03  0.1144409E-04  0.2552222E-06  0.7780030E+02  0.5306311E+02
  0.6577531E+01 -0.1167509E+03 -0.2267311E+03 -0.1920387E-04 -0.2093110E-05  0.7855517E+02  0.4750397E+02
  0.6711735E+01 -0.1184530E+03 -0.2087657E+03  0.8374453E-05 -0.1569534E-06  0.7930479E+02  0.4245552E+02
  0.6845939E+01 -0.1202181E+03 -0.1921056E+03 -0.2990291E-04 -0.2103708E-05  0.8004482E+02  0.3786913E+02
  0.6980143E+01 -0.1220067E+03 -0.1766834E+03  0.1379941E-04 -0.2325242E-05  0.8077003E+02  0.3368284E+02
  0.7114347E+01 -0.1238082E+03 -0.1624798E+03 -0.1221523E-04 -0.1798271E-06  0.8146752E+02  0.3002263E+02
  0.7248551E+01 -0.1255610E+03 -0.1493987E+03  0.9005889E-06 -0.2563752E-05  0.8212457E+02  0.2675498E+02
  0.7382755E+01 -0.1272432E+03 -0.1374241E+03  0.3352948E-04 -0.1430849E-05  0.8274359E+02  0.2381887E+02
  0.7516960E+01 -0.1288917E+03 -0.1265823E+03  0.1499243E-04 -0.2934010E-06  0.8334579E+02  0.2118705E+02
  0.7651164E+01 -0.1304975E+03 -0.1165670E+03  0.3567897E-05  0.2736102E-05  0.8391792E+02  0.1882524E+02
  0.7785367E+01 -0.1320748E+03 -0.1074447E+03 -0.7385388E-05 -0.5075765E-06  0.8447281E+02  0.1671300E+02
  0.7919572E+01 -0.1335951E+03 -0.9894628E+02  0.8820556E-05 -0.2637669E-06  0.8498728E+02  0.1482236E+02
  0.8053776E+01 -0.1350556E+03 -0.9117043E+02 -0.8653849E-05 -0.1995367E-05  0.8546504E+02  0.1315071E+02
  0.8187980E+01 -0.1364463E+03 -0.8391130E+02 -0.1251698E-04 -0.1337877E-06  0.8591202E+02  0.1158570E+02
  0.8322184E+01 -0.1377829E+03 -0.7690209E+02 -0.3302097E-04  0.2586352E-05  0.8633614E+02  0.1001395E+02
  0.8456388E+01 -0.1390668E+03 -0.6953022E+02  0.1324434E-04 -0.9571692E-06  0.8672937E+02  0.8175247E+01
  0.8590592E+01 -0.1404017E+03 -0.5866478E+02 -0.6197020E-05  0.1143829E-04  0.8707306E+02  0.4661891E+01
  0.8724796E+01 -0.1376686E+03 -0.1013033E+03 -0.2154522E-04 -0.5064610E-04  0.8660990E+02  0.2846284E+02
  0.8859000E+01 -0.1419261E+03 -0.6702505E+02  0.2703071E-04 -0.6035122E-05  0.8776186E+02  0.1120243E+02
